/*--------------------------------*- C++ -*----------------------------------*\
| =========                 |                                                 |
| \\      /  F ield         | OpenFOAM: The Open Source CFD Toolbox           |
|  \\    /   O peration     | Version:  2506                                  |
|   \\  /    A nd           | Website:  www.openfoam.com                      |
|    \\/     M anipulation  |                                                 |
\*---------------------------------------------------------------------------*/
FoamFile
{
    version     2.0;
    format      ascii;
    arch        "LSB;label=32;scalar=64";
    class       surfaceScalarField;
    location    "6.5";
    object      surfaceDivU;
}
// * * * * * * * * * * * * * * * * * * * * * * * * * * * * * * * * * * * * * //

dimensions      [0 0 -1 0 0 0 0];

internalField   nonuniform List<scalar> 
760
(
6.03232e-12
-5.0822e-12
-6.49552e-13
6.88043e-13
7.371e-14
-1.52209e-13
-4.29932e-14
4.76287e-14
1.51288e-14
4.77517e-15
-1.17661e-15
1.18052e-15
7.12287e-15
2.45016e-14
-7.06221e-15
-1.6353e-14
6.27287e-16
2.28962e-14
1.41602e-14
-1.6546e-14
-7.30725e-15
7.95905e-15
-5.9773e-15
1.70382e-15
-5.29901e-15
8.02328e-15
-4.53514e-15
-6.67887e-15
7.9129e-15
-2.11829e-15
-1.54986e-14
7.47981e-16
9.03411e-15
-1.71437e-14
-5.44537e-15
2.61766e-14
-2.08591e-14
-5.28922e-15
1.35525e-14
-1.04265e-11
-8.78204e-12
1.18539e-12
1.04848e-12
-1.7829e-13
-2.21172e-13
9.53971e-14
8.0834e-14
-9.17316e-15
1.64043e-14
2.68587e-14
-5.81881e-15
1.02573e-15
3.16849e-15
1.36054e-14
-1.00935e-14
5.72296e-15
4.00506e-14
-2.27471e-14
-2.9483e-14
1.69701e-14
1.48943e-14
1.57044e-14
8.19512e-15
6.64342e-15
-3.92294e-15
-4.26202e-15
1.00845e-14
-9.28321e-15
-1.13801e-14
-8.97045e-16
-4.62106e-15
-1.11286e-18
-6.08165e-15
2.63328e-14
-6.07547e-15
2.91224e-14
1.75608e-14
0
2.69292e-12
8.76849e-12
-3.58079e-13
-8.29333e-13
3.79523e-14
1.35591e-13
1.84113e-15
-6.46463e-14
1.97586e-14
1.99329e-14
-2.9509e-14
-1.52974e-14
-7.95078e-15
-2.40463e-14
1.63516e-14
1.99089e-14
4.84464e-15
-7.33756e-15
8.15837e-15
7.52909e-15
6.11929e-15
-6.89122e-15
-1.14322e-14
2.31982e-14
-4.81822e-16
-6.3677e-15
2.96645e-15
2.77504e-14
-6.71796e-15
-3.85221e-14
-9.80566e-15
-1.68999e-14
-1.2156e-14
2.44536e-14
-1.48475e-14
4.90508e-15
-1.15616e-14
-2.03181e-14
0
5.24623e-12
-2.34459e-12
-3.35662e-13
3.1098e-13
3.29928e-14
-2.30459e-14
-4.65546e-14
1.51578e-14
-1.51231e-14
-1.30687e-14
-9.83469e-15
5.73791e-15
3.81333e-15
-1.31804e-14
-3.7803e-15
7.71508e-16
-4.65312e-15
-1.11656e-14
-7.5205e-15
1.19496e-15
1.01877e-14
-1.64577e-14
2.82628e-14
9.3217e-15
2.18645e-14
9.43199e-15
-1.37381e-14
-1.05255e-14
-4.8704e-14
-1.53948e-14
1.73594e-14
-2.60031e-14
4.15147e-14
4.51511e-14
-5.65537e-16
-1.1474e-14
-8.75646e-15
2.15232e-15
1.35525e-14
-7.27984e-12
-2.41235e-12
6.23596e-13
4.31521e-14
-4.08809e-14
3.09092e-14
4.86437e-14
-9.06631e-15
7.79238e-15
1.5092e-14
2.3922e-15
-1.81267e-15
-1.62222e-14
5.11476e-15
-6.61377e-15
-6.50642e-15
-5.31749e-15
-1.29627e-14
-7.74225e-15
-2.70288e-14
-1.73238e-14
7.09177e-15
-9.50909e-15
-1.10871e-14
-2.2958e-14
3.86976e-14
-1.21822e-14
-2.62052e-14
7.30602e-15
2.72447e-14
1.78864e-15
-6.75307e-15
-7.83755e-15
-8.91274e-15
-8.75615e-15
7.28228e-15
2.44613e-14
4.06633e-15
-1.26218e-29
4.91064e-12
8.19928e-12
-5.49535e-13
-1.29875e-12
6.27238e-14
2.6977e-13
-4.26181e-14
-9.21735e-14
5.48691e-15
3.01103e-14
9.09883e-16
-2.29777e-14
1.48305e-14
1.74994e-14
-1.28553e-14
-6.06579e-15
-3.4674e-14
-2.32703e-15
-1.21948e-14
1.45167e-16
1.33284e-14
-1.59514e-14
3.71196e-14
1.64607e-14
3.54503e-14
1.9358e-14
1.32217e-14
1.13262e-15
1.31856e-14
-2.0472e-15
-1.74545e-14
2.58812e-15
6.20709e-15
3.10375e-15
2.01048e-14
1.22105e-14
-2.0395e-14
-1.94749e-15
-1.35525e-14
1.98988e-12
-6.17995e-12
-4.79447e-13
9.56434e-13
1.14873e-13
-2.01389e-13
-1.94452e-14
5.82972e-14
1.6457e-15
-1.96642e-14
-6.38817e-15
1.76731e-14
-3.39695e-15
1.01752e-14
4.46249e-15
-1.93471e-14
3.24921e-14
9.25864e-15
-3.6114e-15
7.2361e-15
-1.28191e-14
-1.83599e-15
-1.30082e-15
6.13662e-15
-1.49597e-14
-4.1089e-15
-1.41362e-14
-1.25325e-14
-1.26447e-14
1.14968e-14
2.31463e-14
-1.92941e-14
9.10721e-15
9.59642e-15
-9.8417e-15
-6.9523e-15
4.89496e-15
3.14109e-14
0
-7.2134e-12
-1.80249e-12
1.23449e-12
2.81963e-13
-2.57965e-13
-9.22551e-14
5.80782e-14
-4.29148e-15
-3.63682e-15
5.00375e-15
3.42364e-14
3.04747e-14
-5.77495e-15
1.11392e-14
-1.45509e-14
-1.68477e-14
-1.59974e-14
5.57121e-16
9.01151e-15
-2.60384e-14
1.71198e-14
1.2479e-14
3.32854e-15
7.52307e-15
-1.68177e-15
4.92824e-15
1.31004e-14
-1.59402e-14
4.84734e-15
1.9007e-14
-3.2844e-14
-2.66428e-14
-6.46309e-15
3.92352e-15
3.43003e-14
-5.38749e-15
2.6516e-14
2.63177e-14
-1.35525e-14
5.69288e-12
4.67562e-12
-1.04478e-12
-7.85184e-13
1.61419e-13
1.64162e-13
-5.73659e-14
-5.26675e-14
3.91153e-14
-6.1683e-15
7.37752e-15
5.92321e-15
6.64892e-17
1.50002e-14
-1.73962e-15
1.61698e-14
-9.48386e-15
1.16541e-14
-2.25709e-14
-1.14009e-14
2.8823e-15
-3.28124e-14
9.12278e-15
7.84159e-15
-9.33019e-15
1.50203e-14
-1.00337e-14
-2.31233e-14
-1.24831e-14
-1.46248e-14
1.01248e-14
-4.19948e-16
4.99912e-15
2.90823e-14
-1.33701e-14
-3.64897e-14
-1.37508e-14
2.35084e-14
-1.35525e-14
-1.80244e-12
-3.55076e-12
4.23763e-13
6.66628e-13
-4.99243e-14
-9.55669e-14
-1.46986e-15
4.02546e-14
-3.93604e-14
-2.29275e-14
1.35459e-14
9.6279e-15
3.11035e-14
9.99386e-15
2.95635e-14
-9.23174e-15
9.73711e-15
2.14383e-15
-2.16424e-14
-3.48927e-15
-2.78531e-14
8.9643e-15
1.37392e-14
1.4422e-14
1.22721e-15
1.77554e-14
-2.77144e-14
-2.9277e-14
-2.56156e-15
-1.13563e-14
1.85376e-14
-2.618e-14
-1.24066e-14
3.12558e-14
3.88744e-16
6.37812e-15
2.37066e-14
2.5017e-14
-1.35525e-14
-1.08169e-12
3.97089e-12
1.47299e-13
-8.39534e-13
-5.38803e-15
1.63485e-13
1.87969e-14
-7.57257e-14
2.60608e-14
3.7035e-14
6.07586e-15
8.45834e-15
-3.03414e-14
-1.5605e-14
-3.66514e-14
-3.58248e-14
-1.10826e-14
-5.9595e-15
2.71174e-14
-1.41879e-14
5.12394e-14
2.8884e-14
1.84382e-14
1.42562e-14
-1.27487e-14
-1.07161e-17
-1.29189e-14
-2.20894e-14
-3.49748e-14
-3.25118e-15
-1.34619e-14
-5.27307e-14
5.00405e-14
2.84249e-14
3.10063e-14
2.99225e-14
-1.22422e-14
4.85134e-15
-2.71051e-14
4.21305e-12
-2.9409e-12
-8.23348e-13
7.1824e-13
9.3147e-14
-1.6083e-13
-5.74876e-14
6.04158e-14
1.94325e-14
-1.09768e-14
-1.32225e-14
6.53646e-15
-2.10884e-14
-7.58137e-15
-5.13286e-15
-3.99787e-15
-9.06486e-15
-1.52523e-14
-1.24213e-14
6.26805e-15
-8.09918e-15
-1.07874e-15
-4.19274e-15
1.91326e-14
-9.35137e-15
-1.28076e-14
-1.24217e-14
-9.03653e-15
-2.10071e-14
1.40314e-14
-1.0844e-14
-2.63596e-14
8.30693e-15
-5.27051e-16
3.76751e-15
-4.08798e-15
-1.00115e-14
-4.61941e-15
1.35525e-14
-6.43571e-12
-1.93801e-12
1.38076e-12
2.12048e-13
-1.93561e-13
-4.1248e-14
1.06927e-13
2.59542e-14
-2.38729e-14
-2.15058e-14
1.21776e-14
3.05878e-15
9.50913e-15
2.54769e-14
-1.41173e-14
-2.75518e-14
8.05958e-17
-1.51122e-14
1.76106e-14
3.1589e-14
2.61531e-14
-1.11768e-14
1.05177e-14
1.99996e-14
-1.24928e-14
-1.30482e-14
1.74166e-14
1.44492e-15
8.67897e-15
2.0617e-14
-1.60426e-14
1.05969e-14
-1.2922e-14
4.14097e-15
-1.24749e-14
-2.06712e-14
1.89446e-14
-1.66842e-14
2.71051e-14
4.70975e-12
6.451e-12
-1.20996e-12
-9.36111e-13
1.78267e-13
1.83067e-13
-1.02478e-13
-7.04893e-14
5.42583e-15
5.07292e-15
1.63581e-14
1.79766e-14
-1.1584e-14
-5.24744e-15
-2.85466e-14
-1.60163e-14
1.63962e-14
8.33596e-15
2.80159e-15
5.18006e-15
-1.73303e-14
-1.1591e-14
-3.5664e-15
2.89781e-15
8.89511e-16
1.95404e-14
4.64535e-15
8.01387e-15
2.2535e-14
7.73495e-15
3.07806e-14
7.78408e-15
-3.60829e-15
1.15792e-14
-2.48805e-14
-5.3686e-15
-8.52379e-15
2.07277e-14
-2.71051e-14
8.05147e-13
-6.72205e-12
4.56914e-13
1.36784e-12
-6.56896e-14
-2.85962e-13
3.70619e-14
1.12206e-13
1.76237e-14
-2.07017e-14
-3.62894e-15
2.00643e-14
-9.67981e-15
-2.5151e-14
2.08663e-14
9.68079e-15
-2.8802e-15
7.04274e-15
-9.21256e-15
2.77781e-15
8.63713e-15
1.92779e-14
2.60046e-14
-1.09594e-14
2.66647e-14
1.92885e-14
1.11035e-14
-1.66006e-14
-7.01596e-15
-9.87652e-16
-1.14173e-14
1.14292e-14
9.81886e-15
-3.92948e-15
4.02396e-14
9.23534e-15
2.14644e-15
3.32138e-14
-2.71051e-14
-6.15936e-12
1.00289e-12
6.24964e-13
-1.58025e-13
-1.08066e-13
1.72392e-14
5.44424e-14
2.05688e-14
-1.82612e-14
-2.84875e-14
-1.4577e-15
2.60246e-15
-5.79036e-15
-1.10728e-14
-4.14274e-15
2.96481e-15
1.27007e-14
3.79803e-15
3.12682e-14
2.5822e-15
-3.18668e-16
9.06703e-15
-1.76756e-14
-6.14601e-15
-2.39769e-14
4.33833e-15
-2.86917e-14
-1.10429e-14
1.74575e-14
-7.54733e-15
1.8917e-14
2.39172e-14
-4.51299e-15
-1.17466e-14
2.20951e-15
-1.14557e-14
3.9623e-15
1.87504e-14
-1.35525e-14
7.00422e-12
7.69784e-12
-7.6575e-13
-8.53734e-13
1.45874e-13
1.67231e-13
-6.23611e-14
-4.13602e-14
-7.62385e-15
-7.78921e-15
-7.01266e-15
6.78392e-15
-2.31765e-15
2.21035e-15
1.09056e-14
1.29039e-14
-6.32052e-15
1.08284e-14
-1.9619e-14
-7.5204e-16
3.23969e-15
-1.21388e-15
1.58679e-14
-2.48402e-15
1.72723e-14
7.22371e-15
1.01015e-14
-8.61491e-16
-1.08763e-15
-2.60912e-15
-6.7464e-15
1.03114e-15
-1.86893e-14
-7.44457e-15
5.08522e-15
-3.56111e-15
1.23559e-15
1.71407e-14
-1.35525e-14
-1.60121e-13
-8.87691e-12
7.92463e-14
8.79303e-13
-2.00035e-14
-1.7182e-13
1.32116e-14
6.04965e-14
6.61856e-15
-2.03504e-14
1.60069e-14
1.17763e-14
1.74319e-14
1.90249e-14
1.28268e-14
1.22942e-14
1.63969e-14
-1.70259e-16
1.76531e-14
4.49252e-15
-6.93759e-15
-2.4591e-15
-1.11282e-14
-8.09299e-15
-1.09101e-14
3.86718e-15
-1.35721e-14
-2.52938e-14
-4.90348e-16
1.19458e-14
3.32971e-16
1.52145e-14
7.68361e-15
1.19227e-14
8.49439e-15
-3.35172e-15
2.3526e-15
5.08074e-15
0
-7.83748e-12
-2.84603e-12
6.28237e-13
6.36417e-14
-9.132e-14
-4.61133e-15
2.69345e-14
-1.8946e-14
-1.51926e-14
5.22298e-15
1.47943e-14
6.68946e-15
1.38872e-14
-5.44773e-15
-7.02789e-16
1.93349e-14
-1.20746e-14
-6.48514e-15
-1.56197e-14
-5.58946e-15
-3.6145e-15
3.52231e-15
6.90239e-15
6.41571e-15
-1.05165e-14
4.86678e-16
2.24095e-16
2.5493e-15
2.76507e-14
1.12273e-14
2.68042e-14
2.87086e-15
8.87347e-16
1.03809e-14
-6.76537e-15
-9.49351e-15
2.72814e-15
1.62807e-14
-1.35525e-14
5.05509e-12
-5.69206e-13
6.77626e-14
-4.06576e-14
2.71051e-14
-1.35525e-14
-6.31089e-30
1.35525e-14
0
1.35525e-14
1.35525e-14
0
1.35525e-14
1.35525e-14
-1.35525e-14
-1.35525e-14
0
1.35525e-14
-1.67239e-28
)
;

boundaryField
{
    movingWall
    {
        type            calculated;
        value           nonuniform List<scalar> 
20
(
1.15196e-11
-1.40946e-12
2.71051e-13
-1.35525e-13
5.42101e-14
0
-2.71051e-14
2.71051e-14
0
0
2.71051e-14
0
0
2.71051e-14
0
-2.71051e-14
0
0
2.71051e-14
-2.71051e-14
)
;
    }
    fixedWalls
    {
        type            calculated;
        value           nonuniform List<scalar> 
60
(
1.36338e-11
-2.37982e-11
6.23416e-12
1.13028e-11
-1.5992e-11
1.11673e-11
5.23128e-12
-1.75912e-11
1.39862e-11
-4.63496e-12
-2.46656e-12
1.04083e-11
-1.62901e-11
1.24141e-11
4.87891e-13
-1.3932e-11
1.59378e-11
-5.42101e-13
-1.72117e-11
1.15196e-11
2.71051e-14
0
0
0
2.71051e-14
-2.71051e-14
0
0
-2.71051e-14
0
-2.71051e-14
-2.71051e-14
5.42101e-14
0
-5.42101e-14
0
-2.71051e-14
0
0
-2.71051e-14
1.36338e-11
-1.5692e-12
2.70093e-13
-1.22673e-13
3.66864e-14
-6.42868e-15
4.07546e-15
1.01703e-14
-2.42947e-14
2.55493e-14
2.77107e-15
-1.73856e-14
5.43097e-15
-1.6029e-14
6.95871e-15
8.86709e-15
-3.98643e-14
5.79326e-14
-6.88233e-14
2.71051e-14
)
;
    }
    frontAndBack
    {
        type            empty;
    }
}


// ************************************************************************* //
