/*--------------------------------*- C++ -*----------------------------------*\
| =========                 |                                                 |
| \\      /  F ield         | OpenFOAM: The Open Source CFD Toolbox           |
|  \\    /   O peration     | Version:  2506                                  |
|   \\  /    A nd           | Website:  www.openfoam.com                      |
|    \\/     M anipulation  |                                                 |
\*---------------------------------------------------------------------------*/
FoamFile
{
    version     2.0;
    format      ascii;
    arch        "LSB;label=32;scalar=64";
    class       volScalarField;
    location    "6.5";
    object      turbulenceProperties:I;
}
// * * * * * * * * * * * * * * * * * * * * * * * * * * * * * * * * * * * * * //

dimensions      [0 0 0 0 0 0 0];

internalField   nonuniform List<scalar> 
400
(
0.00216405
0.00216405
0.00216405
0.00216405
0.00216405
0.00216405
0.00216405
0.00216405
0.00216405
0.00216405
0.00216405
0.00216405
0.00216405
0.00216405
0.00216405
0.00216405
0.00216405
0.00216405
0.00216405
0.00216405
0.00220636
0.00220636
0.0022063
0.00220628
0.00220624
0.00220621
0.00220618
0.00220616
0.00220613
0.00220611
0.00220609
0.00220608
0.00220606
0.00220605
0.00220604
0.00220603
0.00220602
0.00220602
0.00220601
0.00220601
0.00226667
0.00226667
0.00226659
0.00226657
0.00226652
0.0022665
0.00226646
0.00226644
0.00226641
0.00226639
0.00226636
0.00226635
0.00226633
0.00226632
0.0022663
0.00226629
0.00226629
0.00226628
0.00226628
0.00226628
0.0023222
0.0023222
0.00232213
0.0023221
0.00232205
0.00232202
0.00232198
0.00232196
0.00232193
0.0023219
0.00232188
0.00232186
0.00232184
0.00232182
0.00232181
0.0023218
0.00232179
0.00232179
0.00232179
0.00232178
0.00236319
0.00236319
0.00236311
0.00236309
0.00236303
0.002363
0.00236296
0.00236293
0.0023629
0.00236287
0.00236285
0.00236283
0.00236281
0.00236279
0.00236278
0.00236277
0.00236276
0.00236276
0.00236275
0.00236275
0.00238985
0.00238985
0.00238977
0.00238974
0.00238969
0.00238965
0.00238962
0.00238958
0.00238955
0.00238952
0.0023895
0.00238947
0.00238946
0.00238944
0.00238943
0.00238941
0.00238941
0.0023894
0.0023894
0.00238939
0.00240609
0.00240609
0.002406
0.00240597
0.00240592
0.00240589
0.00240584
0.00240582
0.00240577
0.00240575
0.00240572
0.0024057
0.00240568
0.00240567
0.00240565
0.00240564
0.00240563
0.00240562
0.00240562
0.00240562
0.00241588
0.00241588
0.0024158
0.00241576
0.00241571
0.00241568
0.00241564
0.0024156
0.00241557
0.00241554
0.00241552
0.00241549
0.00241547
0.00241546
0.00241544
0.00241543
0.00241542
0.00241541
0.00241541
0.00241541
0.00242212
0.00242212
0.00242203
0.002422
0.00242195
0.00242191
0.00242187
0.00242184
0.00242181
0.00242177
0.00242175
0.00242172
0.00242171
0.00242169
0.00242168
0.00242166
0.00242166
0.00242165
0.00242165
0.00242164
0.00242659
0.00242659
0.0024265
0.00242647
0.00242641
0.00242638
0.00242634
0.00242631
0.00242627
0.00242624
0.00242622
0.00242619
0.00242617
0.00242616
0.00242614
0.00242613
0.00242612
0.00242611
0.00242611
0.00242611
0.0024303
0.0024303
0.00243021
0.00243018
0.00243013
0.00243009
0.00243005
0.00243002
0.00242999
0.00242995
0.00242993
0.0024299
0.00242989
0.00242986
0.00242985
0.00242984
0.00242983
0.00242982
0.00242982
0.00242982
0.00243382
0.00243382
0.00243374
0.00243371
0.00243365
0.00243362
0.00243356
0.00243355
0.0024335
0.00243348
0.00243344
0.00243343
0.0024334
0.00243339
0.00243337
0.00243336
0.00243335
0.00243335
0.00243334
0.00243334
0.00243747
0.00243747
0.00243738
0.00243735
0.0024373
0.00243726
0.00243722
0.00243718
0.00243715
0.00243712
0.0024371
0.00243707
0.00243705
0.00243703
0.00243702
0.002437
0.002437
0.00243699
0.00243699
0.00243699
0.00244144
0.00244144
0.00244135
0.00244132
0.00244126
0.00244124
0.00244118
0.00244116
0.00244111
0.0024411
0.00244106
0.00244104
0.00244101
0.002441
0.00244098
0.00244097
0.00244096
0.00244096
0.00244095
0.00244095
0.00244584
0.00244585
0.00244575
0.00244573
0.00244566
0.00244564
0.00244559
0.00244556
0.00244552
0.00244549
0.00244546
0.00244544
0.00244542
0.0024454
0.00244538
0.00244537
0.00244536
0.00244536
0.00244535
0.00244535
0.00245069
0.00245069
0.0024506
0.00245057
0.00245051
0.00245048
0.00245043
0.00245041
0.00245036
0.00245034
0.0024503
0.00245029
0.00245026
0.00245025
0.00245023
0.00245022
0.00245021
0.0024502
0.0024502
0.0024502
0.00245581
0.00245581
0.00245572
0.00245569
0.00245563
0.0024556
0.00245555
0.00245552
0.00245548
0.00245546
0.00245543
0.00245541
0.00245538
0.00245536
0.00245535
0.00245534
0.00245533
0.00245532
0.00245532
0.00245532
0.00246076
0.00246076
0.00246066
0.00246064
0.00246057
0.00246055
0.00246049
0.00246047
0.00246042
0.0024604
0.00246037
0.00246035
0.00246032
0.00246031
0.00246029
0.00246028
0.00246027
0.00246026
0.00246026
0.00246026
0.00246478
0.00246478
0.00246468
0.00246467
0.0024646
0.00246458
0.00246452
0.0024645
0.00246445
0.00246443
0.0024644
0.00246438
0.00246436
0.00246434
0.00246432
0.00246431
0.0024643
0.0024643
0.00246429
0.00246429
0.00246659
0.00246659
0.00246659
0.00246659
0.00246659
0.00246659
0.00246659
0.00246659
0.00246659
0.00246659
0.00246659
0.00246659
0.00246659
0.00246659
0.00246659
0.00246659
0.00246659
0.00246659
0.00246659
0.00246659
)
;

boundaryField
{
    movingWall
    {
        type            calculated;
        value           nonuniform List<scalar> 
20
(
0.00246659
0.00246659
0.00246659
0.00246659
0.00246659
0.00246659
0.00246659
0.00246659
0.00246659
0.00246659
0.00246659
0.00246659
0.00246659
0.00246659
0.00246659
0.00246659
0.00246659
0.00246659
0.00246659
0.00246659
)
;
    }
    fixedWalls
    {
        type            calculated;
        value           nonuniform List<scalar> 
60
(
0.00216405
0.00220636
0.00226667
0.0023222
0.00236319
0.00238985
0.00240609
0.00241588
0.00242212
0.00242659
0.0024303
0.00243382
0.00243747
0.00244144
0.00244584
0.00245069
0.00245581
0.00246076
0.00246478
0.00246659
0.00216405
0.00220601
0.00226628
0.00232178
0.00236275
0.00238939
0.00240562
0.00241541
0.00242164
0.00242611
0.00242982
0.00243334
0.00243699
0.00244095
0.00244535
0.0024502
0.00245532
0.00246026
0.00246429
0.00246659
0.00216405
0.00216405
0.00216405
0.00216405
0.00216405
0.00216405
0.00216405
0.00216405
0.00216405
0.00216405
0.00216405
0.00216405
0.00216405
0.00216405
0.00216405
0.00216405
0.00216405
0.00216405
0.00216405
0.00216405
)
;
    }
    frontAndBack
    {
        type            empty;
    }
}


// ************************************************************************* //
