/*--------------------------------*- C++ -*----------------------------------*\
| =========                 |                                                 |
| \\      /  F ield         | OpenFOAM: The Open Source CFD Toolbox           |
|  \\    /   O peration     | Version:  2506                                  |
|   \\  /    A nd           | Website:  www.openfoam.com                      |
|    \\/     M anipulation  |                                                 |
\*---------------------------------------------------------------------------*/
FoamFile
{
    version     2.0;
    format      ascii;
    arch        "LSB;label=32;scalar=64";
    class       volScalarField;
    location    "6.5";
    object      turbulenceProperties:k;
}
// * * * * * * * * * * * * * * * * * * * * * * * * * * * * * * * * * * * * * //

dimensions      [0 2 -2 0 0 0 0];

internalField   nonuniform List<scalar> 
400
(
7.0247e-06
7.02469e-06
7.02468e-06
7.02468e-06
7.02467e-06
7.02467e-06
7.02466e-06
7.02467e-06
7.02465e-06
7.02467e-06
7.02465e-06
7.02466e-06
7.02465e-06
7.02466e-06
7.02465e-06
7.02465e-06
7.02465e-06
7.02465e-06
7.02465e-06
7.02465e-06
7.30206e-06
7.30206e-06
7.30165e-06
7.30149e-06
7.30124e-06
7.30107e-06
7.30085e-06
7.30071e-06
7.30052e-06
7.3004e-06
7.30025e-06
7.30015e-06
7.30005e-06
7.29996e-06
7.29989e-06
7.29983e-06
7.29979e-06
7.29976e-06
7.29974e-06
7.29973e-06
7.70666e-06
7.70668e-06
7.70615e-06
7.70603e-06
7.70569e-06
7.70553e-06
7.70527e-06
7.70512e-06
7.70491e-06
7.70478e-06
7.7046e-06
7.7045e-06
7.70436e-06
7.70429e-06
7.70418e-06
7.70414e-06
7.70407e-06
7.70405e-06
7.70403e-06
7.70402e-06
8.08893e-06
8.08893e-06
8.0884e-06
8.08822e-06
8.08786e-06
8.08769e-06
8.08741e-06
8.08723e-06
8.08701e-06
8.08685e-06
8.08668e-06
8.08654e-06
8.08641e-06
8.08631e-06
8.08621e-06
8.08614e-06
8.08609e-06
8.08606e-06
8.08603e-06
8.08602e-06
8.37702e-06
8.37703e-06
8.37643e-06
8.37626e-06
8.37589e-06
8.37567e-06
8.37539e-06
8.37517e-06
8.37497e-06
8.37475e-06
8.37462e-06
8.37442e-06
8.37433e-06
8.37417e-06
8.37412e-06
8.37401e-06
8.37397e-06
8.37392e-06
8.37391e-06
8.37389e-06
8.56708e-06
8.56706e-06
8.56649e-06
8.56626e-06
8.5659e-06
8.56564e-06
8.56539e-06
8.56512e-06
8.56494e-06
8.5647e-06
8.56457e-06
8.56436e-06
8.56428e-06
8.5641e-06
8.56405e-06
8.56392e-06
8.56389e-06
8.56383e-06
8.56382e-06
8.5638e-06
8.68388e-06
8.68389e-06
8.68326e-06
8.68307e-06
8.68264e-06
8.68245e-06
8.68209e-06
8.68193e-06
8.68162e-06
8.68148e-06
8.68124e-06
8.68112e-06
8.68094e-06
8.68084e-06
8.68072e-06
8.68065e-06
8.68058e-06
8.68055e-06
8.68052e-06
8.68051e-06
8.75472e-06
8.75471e-06
8.7541e-06
8.75386e-06
8.7535e-06
8.75324e-06
8.75294e-06
8.75271e-06
8.75246e-06
8.75226e-06
8.75207e-06
8.75191e-06
8.75176e-06
8.75164e-06
8.75153e-06
8.75144e-06
8.75138e-06
8.75134e-06
8.75131e-06
8.7513e-06
8.8e-06
8.80001e-06
8.79935e-06
8.79916e-06
8.79876e-06
8.7985e-06
8.79819e-06
8.79795e-06
8.79772e-06
8.79749e-06
8.79733e-06
8.79712e-06
8.79701e-06
8.79685e-06
8.79678e-06
8.79667e-06
8.79662e-06
8.79657e-06
8.79655e-06
8.79654e-06
8.8325e-06
8.83251e-06
8.83183e-06
8.83165e-06
8.83122e-06
8.83099e-06
8.83067e-06
8.83044e-06
8.8302e-06
8.82999e-06
8.82979e-06
8.82962e-06
8.82947e-06
8.82934e-06
8.82923e-06
8.82915e-06
8.82908e-06
8.82904e-06
8.82902e-06
8.82901e-06
8.85955e-06
8.85956e-06
8.85889e-06
8.85869e-06
8.85828e-06
8.85802e-06
8.85774e-06
8.85746e-06
8.85727e-06
8.857e-06
8.85686e-06
8.85663e-06
8.85653e-06
8.85636e-06
8.85629e-06
8.85617e-06
8.85613e-06
8.85607e-06
8.85605e-06
8.85604e-06
8.88525e-06
8.88525e-06
8.88461e-06
8.88439e-06
8.88396e-06
8.88376e-06
8.88336e-06
8.88322e-06
8.88287e-06
8.88275e-06
8.88247e-06
8.88236e-06
8.88216e-06
8.88207e-06
8.88194e-06
8.88187e-06
8.8818e-06
8.88176e-06
8.88173e-06
8.88172e-06
8.91191e-06
8.91192e-06
8.91124e-06
8.91103e-06
8.91063e-06
8.91037e-06
8.91007e-06
8.9098e-06
8.90958e-06
8.90933e-06
8.90917e-06
8.90895e-06
8.90884e-06
8.90868e-06
8.90861e-06
8.90849e-06
8.90845e-06
8.90839e-06
8.90837e-06
8.90836e-06
8.94095e-06
8.94095e-06
8.9403e-06
8.9401e-06
8.93962e-06
8.93946e-06
8.93904e-06
8.9389e-06
8.93854e-06
8.93843e-06
8.93814e-06
8.93804e-06
8.93783e-06
8.93774e-06
8.9376e-06
8.93753e-06
8.93746e-06
8.93742e-06
8.93739e-06
8.93738e-06
8.97323e-06
8.97325e-06
8.97253e-06
8.97237e-06
8.97191e-06
8.9717e-06
8.97134e-06
8.97114e-06
8.97083e-06
8.97067e-06
8.97041e-06
8.97029e-06
8.97009e-06
8.96999e-06
8.96985e-06
8.96979e-06
8.9697e-06
8.96967e-06
8.96964e-06
8.96963e-06
9.00883e-06
9.00884e-06
9.00816e-06
9.00797e-06
9.00749e-06
9.00731e-06
9.0069e-06
9.00675e-06
9.00638e-06
9.00627e-06
9.00599e-06
9.00588e-06
9.00566e-06
9.00558e-06
9.00543e-06
9.00536e-06
9.00528e-06
9.00525e-06
9.00522e-06
9.00521e-06
9.04652e-06
9.04652e-06
9.04586e-06
9.04562e-06
9.0452e-06
9.04496e-06
9.04461e-06
9.04439e-06
9.0441e-06
9.04391e-06
9.04368e-06
9.04352e-06
9.04335e-06
9.04323e-06
9.04311e-06
9.04302e-06
9.04295e-06
9.04291e-06
9.04288e-06
9.04287e-06
9.083e-06
9.08303e-06
9.08228e-06
9.08213e-06
9.08163e-06
9.08145e-06
9.08103e-06
9.08087e-06
9.08052e-06
9.08038e-06
9.08011e-06
9.07998e-06
9.07979e-06
9.07968e-06
9.07954e-06
9.07947e-06
9.07939e-06
9.07935e-06
9.07932e-06
9.07931e-06
9.11269e-06
9.11274e-06
9.112e-06
9.11187e-06
9.11137e-06
9.1112e-06
9.1108e-06
9.11064e-06
9.1103e-06
9.11014e-06
9.10991e-06
9.10975e-06
9.10958e-06
9.10946e-06
9.10933e-06
9.10925e-06
9.10918e-06
9.10914e-06
9.10911e-06
9.1091e-06
9.12613e-06
9.12612e-06
9.12612e-06
9.1261e-06
9.12612e-06
9.12608e-06
9.12611e-06
9.12607e-06
9.1261e-06
9.12607e-06
9.12609e-06
9.12607e-06
9.12608e-06
9.12608e-06
9.12608e-06
9.12607e-06
9.12607e-06
9.12607e-06
9.12607e-06
9.12607e-06
)
;

boundaryField
{
    movingWall
    {
        type            kqRWallFunction;
        value           nonuniform List<scalar> 
20
(
9.12613e-06
9.12612e-06
9.12612e-06
9.1261e-06
9.12612e-06
9.12608e-06
9.12611e-06
9.12607e-06
9.1261e-06
9.12607e-06
9.12609e-06
9.12607e-06
9.12608e-06
9.12608e-06
9.12608e-06
9.12607e-06
9.12607e-06
9.12607e-06
9.12607e-06
9.12607e-06
)
;
    }
    fixedWalls
    {
        type            kqRWallFunction;
        value           nonuniform List<scalar> 
60
(
7.0247e-06
7.30206e-06
7.70666e-06
8.08893e-06
8.37702e-06
8.56708e-06
8.68388e-06
8.75472e-06
8.8e-06
8.8325e-06
8.85955e-06
8.88525e-06
8.91191e-06
8.94095e-06
8.97323e-06
9.00883e-06
9.04652e-06
9.083e-06
9.11269e-06
9.12613e-06
7.02465e-06
7.29973e-06
7.70402e-06
8.08602e-06
8.37389e-06
8.5638e-06
8.68051e-06
8.7513e-06
8.79654e-06
8.82901e-06
8.85604e-06
8.88172e-06
8.90836e-06
8.93738e-06
8.96963e-06
9.00521e-06
9.04287e-06
9.07931e-06
9.1091e-06
9.12607e-06
7.0247e-06
7.02469e-06
7.02468e-06
7.02468e-06
7.02467e-06
7.02467e-06
7.02466e-06
7.02467e-06
7.02465e-06
7.02467e-06
7.02465e-06
7.02466e-06
7.02465e-06
7.02466e-06
7.02465e-06
7.02465e-06
7.02465e-06
7.02465e-06
7.02465e-06
7.02465e-06
)
;
    }
    frontAndBack
    {
        type            empty;
    }
}


// ************************************************************************* //
