/*--------------------------------*- C++ -*----------------------------------*\
| =========                 |                                                 |
| \\      /  F ield         | OpenFOAM: The Open Source CFD Toolbox           |
|  \\    /   O peration     | Version:  2506                                  |
|   \\  /    A nd           | Website:  www.openfoam.com                      |
|    \\/     M anipulation  |                                                 |
\*---------------------------------------------------------------------------*/
FoamFile
{
    version     2.0;
    format      ascii;
    arch        "LSB;label=32;scalar=64";
    class       volSymmTensorField;
    location    "6.5";
    object      turbulenceProperties:devReff;
}
// * * * * * * * * * * * * * * * * * * * * * * * * * * * * * * * * * * * * * //

dimensions      [0 2 -2 0 0 0 0];

internalField   nonuniform List<symmTensor> 
400
(
(1.27961e-16 -1.26253e-16 -0 -2.32266e-16 -0 1.04305e-16)
(-4.81193e-17 1.43155e-16 -0 6.01325e-17 -0 -1.20132e-17)
(1.32731e-17 -2.93707e-17 -0 -1.53408e-17 -0 2.06773e-18)
(-2.18418e-18 6.8445e-18 -0 3.12331e-18 -0 -9.39138e-19)
(2.80857e-19 -2.07598e-18 -0 -5.61715e-19 -0 2.80857e-19)
(5.73303e-19 -3.87173e-19 -0 -5.24088e-19 -0 -4.92156e-20)
(6.53719e-19 -5.69099e-19 -0 -6.84919e-19 -0 3.12002e-20)
(7.78598e-20 1.69906e-19 -0 -1.5572e-19 -0 7.78598e-20)
(4.36528e-19 -2.20389e-19 -0 -2.50536e-19 -0 -1.85991e-19)
(-4.26923e-19 -3.33019e-19 -0 2.31327e-19 -0 1.95596e-19)
(2.12143e-20 -9.68638e-20 -0 -4.24286e-20 -0 2.12143e-20)
(4.89421e-19 -5.58538e-21 -0 -3.56324e-19 -0 -1.33097e-19)
(4.15775e-20 2.66967e-20 -0 -8.3155e-20 -0 4.15775e-20)
(4.99807e-19 -1.59892e-20 -0 -3.77095e-19 -0 -1.22712e-19)
(5.32733e-20 8.66164e-19 -0 -1.06547e-19 -0 5.32733e-20)
(6.78831e-20 5.35705e-19 -0 -1.35766e-19 -0 6.78831e-20)
(9.39851e-19 6.8008e-19 -0 -6.34664e-19 -0 -3.05187e-19)
(-8.01527e-19 1.93875e-19 -0 3.58017e-19 -0 4.4351e-19)
(7.18152e-19 1.58228e-19 -0 -1.91266e-19 -0 -5.26886e-19)
(-9.82394e-19 -1.50061e-19 -0 7.1975e-19 -0 2.62644e-19)
(-2.21857e-16 -2.5009e-17 -0 4.04398e-16 -0 -1.8254e-16)
(8.07946e-17 2.40077e-17 -0 -1.03425e-16 -0 2.26308e-17)
(-2.19188e-17 -3.75386e-18 -0 2.63293e-17 -0 -4.4105e-18)
(2.82737e-18 1.7574e-18 -0 -4.40424e-18 -0 1.57688e-18)
(-1.53257e-18 4.31655e-19 -0 1.81485e-18 -0 -2.82281e-19)
(-5.08106e-19 1.07736e-18 -0 3.91118e-19 -0 1.16988e-19)
(-9.35998e-19 6.9249e-19 -0 6.22003e-19 -0 3.13994e-19)
(8.422e-19 1.56488e-19 -0 -4.34514e-19 -0 -4.07686e-19)
(-7.3272e-19 4.39489e-20 -0 2.1575e-19 -0 5.16971e-19)
(1.43576e-18 -2.90104e-19 -0 -9.97135e-19 -0 -4.38621e-19)
(7.97124e-20 5.91967e-19 -0 -1.59425e-19 -0 7.97124e-20)
(8.50655e-20 -2.50446e-20 -0 -1.70131e-19 -0 8.50655e-20)
(3.98208e-20 5.82133e-19 -0 -7.96417e-20 -0 3.98208e-20)
(-6.45479e-20 -1.55949e-21 -0 1.29096e-19 -0 -6.45479e-20)
(-1.39399e-19 -2.18936e-19 -0 2.78799e-19 -0 -1.39399e-19)
(-1.24677e-19 -6.22349e-19 -0 2.49355e-19 -0 -1.24677e-19)
(-4.8348e-19 -6.22725e-19 -0 3.42715e-19 -0 1.40766e-19)
(-7.14015e-20 1.39045e-19 -0 1.42803e-19 -0 -7.14015e-20)
(-8.97103e-19 1.13367e-19 -0 5.45922e-19 -0 3.51181e-19)
(8.9471e-21 -2.46915e-19 -0 -1.78942e-20 -0 8.9471e-21)
(6.22851e-17 1.68886e-16 -0 -1.10165e-16 -0 4.788e-17)
(-2.34273e-17 -1.53923e-16 -0 2.99055e-17 -0 -6.4782e-18)
(5.45429e-18 3.15775e-17 -0 -6.51532e-18 -0 1.06103e-18)
(-1.07017e-18 -6.84538e-18 -0 1.51279e-18 -0 -4.42618e-19)
(-7.92106e-19 1.98742e-18 -0 3.29322e-19 -0 4.62784e-19)
(-2.25425e-19 -3.46854e-19 -0 4.5085e-19 -0 -2.25425e-19)
(-2.26091e-19 8.43744e-19 -0 4.52182e-19 -0 -2.26091e-19)
(-5.39638e-19 4.92679e-19 -0 4.52048e-19 -0 8.75893e-20)
(-4.63297e-19 1.07895e-18 -0 2.99472e-19 -0 1.63825e-19)
(3.16655e-20 6.36269e-19 -0 -6.3331e-20 -0 3.16655e-20)
(2.69435e-20 5.45995e-20 -0 -5.3887e-20 -0 2.69435e-20)
(1.47165e-20 -5.72493e-19 -0 -2.94329e-20 -0 1.47165e-20)
(4.02666e-19 -6.881e-19 -0 -1.78531e-19 -0 -2.24134e-19)
(-5.12465e-19 -5.96425e-20 -0 3.98188e-19 -0 1.14277e-19)
(-2.84854e-21 -1.23079e-18 -0 5.69709e-21 -0 -2.84854e-21)
(4.23818e-20 -1.95859e-19 -0 -8.47636e-20 -0 4.23818e-20)
(4.46836e-19 -2.22343e-20 -0 -2.6719e-19 -0 -1.79645e-19)
(-7.64528e-21 -1.21721e-19 -0 1.52906e-20 -0 -7.64528e-21)
(4.17173e-19 -2.74926e-19 -0 -2.07975e-19 -0 -2.09199e-19)
(1.55823e-20 -2.35208e-19 -0 -3.11647e-20 -0 1.55823e-20)
(1.27033e-16 -1.18613e-16 -0 -2.14479e-16 -0 8.74461e-17)
(-5.34546e-17 1.05832e-16 -0 5.9669e-17 -0 -6.21441e-18)
(1.36971e-17 -2.32528e-17 -0 -1.47997e-17 -0 1.10259e-18)
(-1.80897e-18 4.559e-18 -0 2.35859e-18 -0 -5.49625e-19)
(1.68882e-18 -1.78071e-18 -0 -1.48897e-18 -0 -1.99851e-19)
(-1.30406e-19 2.33234e-19 -0 2.60812e-19 -0 -1.30406e-19)
(-6.14032e-19 -4.03081e-19 -0 5.98678e-19 -0 1.53539e-20)
(-1.09191e-18 -1.14593e-19 -0 9.25172e-19 -0 1.66741e-19)
(-2.68534e-19 -1.86212e-19 -0 5.37068e-19 -0 -2.68534e-19)
(-1.13678e-18 5.43003e-19 -0 1.01524e-18 -0 1.21535e-19)
(-1.54412e-19 -7.45881e-21 -0 3.08825e-19 -0 -1.54412e-19)
(-1.45996e-18 6.67194e-19 -0 1.03296e-18 -0 4.27e-19)
(-2.25634e-20 4.36316e-19 -0 4.51268e-20 -0 -2.25634e-20)
(-2.60643e-19 -2.01574e-20 -0 -1.0753e-19 -0 3.68173e-19)
(1.46928e-18 5.16426e-19 -0 -1.05242e-18 -0 -4.16853e-19)
(3.96272e-19 5.82442e-19 -0 -1.63895e-19 -0 -2.32377e-19)
(-1.44285e-18 7.681e-20 -0 1.00007e-18 -0 4.42779e-19)
(-4.51074e-19 -1.29713e-19 -0 2.73668e-19 -0 1.77407e-19)
(4.62311e-19 3.93401e-19 -0 -2.96193e-19 -0 -1.66118e-19)
(-2.22526e-20 -2.25771e-19 -0 4.45052e-20 -0 -2.22526e-20)
(-1.70446e-16 -1.53027e-17 -0 2.94282e-16 -0 -1.23835e-16)
(7.17191e-17 5.31756e-18 -0 -8.28196e-17 -0 1.11005e-17)
(-1.78779e-17 -3.58313e-18 -0 1.93421e-17 -0 -1.4642e-18)
(3.89413e-18 -1.1397e-18 -0 -4.63208e-18 -0 7.37944e-19)
(-7.32674e-19 -1.4712e-18 -0 8.34229e-19 -0 -1.01555e-19)
(-3.84187e-19 -1.61905e-18 -0 1.37316e-19 -0 2.46871e-19)
(-5.70833e-20 -1.49097e-18 -0 1.14167e-19 -0 -5.70833e-20)
(-4.35186e-20 -1.28558e-18 -0 8.70372e-20 -0 -4.35186e-20)
(-4.47993e-22 -1.68531e-18 -0 8.95987e-22 -0 -4.47993e-22)
(-9.85812e-21 -7.92968e-19 -0 1.97162e-20 -0 -9.85812e-21)
(6.41709e-21 -1.03509e-18 -0 -1.28342e-20 -0 6.41709e-21)
(4.07631e-19 -1.43505e-19 -0 -1.84736e-19 -0 -2.22895e-19)
(5.74619e-20 -2.8857e-19 -0 -1.14924e-19 -0 5.74619e-20)
(1.34879e-18 2.17825e-19 -0 -8.06526e-19 -0 -5.42262e-19)
(-9.04275e-19 2.95335e-19 -0 5.48068e-19 -0 3.56207e-19)
(-1.18214e-19 -8.59438e-19 -0 2.36428e-19 -0 -1.18214e-19)
(-5.43149e-19 -8.42782e-21 -0 4.56232e-19 -0 8.69176e-20)
(4.08368e-19 1.63093e-19 -0 -1.86733e-19 -0 -2.21635e-19)
(9.47103e-20 -2.91274e-19 -0 -1.89421e-19 -0 9.47103e-20)
(5.10524e-20 -5.19752e-19 -0 -1.02105e-19 -0 5.10524e-20)
(1.04242e-16 1.14356e-16 -0 -1.90821e-16 -0 8.65782e-17)
(-3.76321e-17 -1.11252e-16 -0 4.8068e-17 -0 -1.04359e-17)
(1.01043e-17 2.38325e-17 -0 -1.19884e-17 -0 1.88415e-18)
(-1.53735e-18 -5.68865e-18 -0 2.44243e-18 -0 -9.05088e-19)
(-3.03294e-19 8.45955e-19 -0 -2.5549e-20 -0 3.28843e-19)
(4.78113e-19 -4.64671e-19 -0 -3.24153e-19 -0 -1.5396e-19)
(1.30891e-19 3.1495e-20 -0 -2.61783e-19 -0 1.30891e-19)
(5.62367e-19 -5.16085e-19 -0 -4.92844e-19 -0 -6.95236e-20)
(1.02548e-18 -2.37528e-19 -0 -7.87414e-19 -0 -2.38068e-19)
(1.04534e-18 -7.28527e-19 -0 -8.27262e-19 -0 -2.18078e-19)
(1.4887e-19 -3.18983e-19 -0 -2.9774e-19 -0 1.4887e-19)
(1.16752e-19 -3.54107e-19 -0 -2.33504e-19 -0 1.16752e-19)
(-8.65888e-19 -2.90932e-20 -0 4.68944e-19 -0 3.96944e-19)
(-5.4216e-19 -4.69168e-19 -0 4.5297e-19 -0 8.91894e-20)
(-5.36411e-19 -4.34035e-19 -0 4.41584e-19 -0 9.48263e-20)
(-3.5413e-21 4.25168e-20 -0 7.0826e-21 -0 -3.5413e-21)
(9.66981e-19 -8.29718e-20 -0 -6.71843e-19 -0 -2.95137e-19)
(-7.48911e-19 -1.41964e-19 -0 2.35836e-19 -0 5.13075e-19)
(5.6578e-19 -1.46827e-20 -0 -5.00623e-19 -0 -6.51568e-20)
(5.31775e-19 -7.7031e-21 -0 -4.327e-19 -0 -9.90742e-20)
(3.6851e-17 -1.31914e-16 -0 -7.74909e-17 -0 4.06398e-17)
(-7.28355e-18 1.43907e-16 -0 1.70995e-17 -0 -9.81592e-18)
(9.88574e-19 -2.83425e-17 -0 -3.24303e-18 -0 2.25446e-18)
(-1.02056e-18 8.1539e-18 -0 1.40823e-18 -0 -3.87676e-19)
(1.15484e-19 -3.87885e-19 -0 -2.30969e-19 -0 1.15484e-19)
(4.57446e-19 1.20466e-18 -0 -2.82198e-19 -0 -1.75248e-19)
(6.16675e-20 9.08741e-19 -0 -1.23335e-19 -0 6.16675e-20)
(4.98119e-19 8.46398e-19 -0 -3.63729e-19 -0 -1.3439e-19)
(-4.39459e-19 1.063e-18 -0 2.4653e-19 -0 1.92929e-19)
(-4.12961e-19 5.2099e-19 -0 1.93598e-19 -0 2.19363e-19)
(9.67823e-19 6.72288e-19 -0 -6.71233e-19 -0 -2.96589e-19)
(1.00732e-19 4.31738e-19 -0 -2.01464e-19 -0 1.00732e-19)
(3.55414e-19 6.80438e-20 -0 -7.88031e-20 -0 -2.76611e-19)
(-8.56571e-20 6.71906e-19 -0 1.71314e-19 -0 -8.56571e-20)
(5.02941e-19 7.51214e-19 -0 -3.74039e-19 -0 -1.28902e-19)
(5.69882e-19 6.71615e-19 -0 -5.07987e-19 -0 -6.18951e-20)
(-3.60107e-19 4.79131e-19 -0 8.85517e-20 -0 2.71556e-19)
(4.05121e-19 7.65655e-19 -0 -1.78646e-19 -0 -2.26475e-19)
(-2.81944e-20 3.11273e-19 -0 5.63887e-20 -0 -2.81944e-20)
(3.15317e-20 4.9527e-19 -0 -6.30633e-20 -0 3.15317e-20)
(-1.4366e-16 4.67483e-17 -0 2.80369e-16 -0 -1.36709e-16)
(3.98912e-17 -4.92255e-17 -0 -6.45791e-17 -0 2.46879e-17)
(-1.04394e-17 1.09896e-17 -0 1.58123e-17 -0 -5.37287e-18)
(1.46502e-18 -1.53775e-18 -0 -2.93005e-18 -0 1.46502e-18)
(-4.68567e-19 1.16173e-18 -0 9.37134e-19 -0 -4.68567e-19)
(-8.79867e-19 2.48404e-19 -0 4.936e-19 -0 3.86267e-19)
(3.52565e-20 -2.97086e-20 -0 -7.0513e-20 -0 3.52565e-20)
(9.82531e-19 8.68234e-19 -0 -6.99302e-19 -0 -2.83229e-19)
(-1.27331e-20 1.80306e-19 -0 2.54663e-20 -0 -1.27331e-20)
(-1.09146e-19 3.21445e-19 -0 2.18291e-19 -0 -1.09146e-19)
(-9.59632e-19 8.0736e-19 -0 6.54111e-19 -0 3.05521e-19)
(-5.05659e-20 8.80499e-19 -0 1.01132e-19 -0 -5.05659e-20)
(-5.09831e-19 2.50594e-19 -0 3.87269e-19 -0 1.22562e-19)
(-1.2682e-19 -5.91803e-20 -0 2.5364e-19 -0 -1.2682e-19)
(-9.2484e-19 -1.5423e-19 -0 5.85259e-19 -0 3.3958e-19)
(9.85993e-19 7.3637e-20 -0 -7.077e-19 -0 -2.78293e-19)
(4.61245e-19 -4.68062e-19 -0 -2.90462e-19 -0 -1.70783e-19)
(-4.92559e-19 -8.31733e-21 -0 3.53157e-19 -0 1.39402e-19)
(-9.27772e-19 -8.59627e-20 -0 5.91736e-19 -0 3.36035e-19)
(-2.0009e-20 -2.70007e-21 -0 4.0018e-20 -0 -2.0009e-20)
(1.17033e-16 5.76421e-17 -0 -2.25848e-16 -0 1.08816e-16)
(-3.41538e-17 -6.49698e-17 -0 5.4366e-17 -0 -2.02122e-17)
(8.97617e-18 1.21703e-17 -0 -1.28839e-17 -0 3.90772e-18)
(-1.38496e-18 -3.94769e-18 -0 2.76993e-18 -0 -1.38496e-18)
(-6.24838e-19 -3.53426e-19 -0 -1.70632e-20 -0 6.41901e-19)
(2.40949e-20 -5.00094e-19 -0 -4.81898e-20 -0 2.40949e-20)
(6.12926e-19 -3.01968e-19 -0 -5.9267e-19 -0 -2.02563e-20)
(5.33295e-19 -9.8013e-19 -0 -4.33472e-19 -0 -9.98223e-20)
(8.82631e-20 -1.41259e-18 -0 -1.76526e-19 -0 8.82631e-20)
(4.35098e-19 -1.22201e-18 -0 -2.37266e-19 -0 -1.97832e-19)
(-8.283e-20 -9.96961e-19 -0 1.6566e-19 -0 -8.283e-20)
(-9.82411e-19 7.38627e-20 -0 6.99335e-19 -0 2.83076e-19)
(1.80094e-20 -4.50061e-19 -0 -3.60188e-20 -0 1.80094e-20)
(4.95556e-19 -2.85775e-19 -0 -3.58553e-19 -0 -1.37003e-19)
(-1.20673e-20 -6.01809e-19 -0 2.41346e-20 -0 -1.20673e-20)
(-4.66952e-20 -1.42868e-19 -0 9.33903e-20 -0 -4.66952e-20)
(-3.3888e-19 -4.63265e-19 -0 4.54985e-20 -0 2.93381e-19)
(5.17071e-19 -6.26341e-19 -0 -4.0195e-19 -0 -1.15121e-19)
(6.07664e-21 -8.13794e-20 -0 -1.21533e-20 -0 6.07664e-21)
(3.94763e-19 2.18099e-20 -0 -1.5748e-19 -0 -2.37282e-19)
(-3.60511e-17 -1.01415e-16 -0 7.21023e-17 -0 -3.60511e-17)
(9.28495e-18 1.16495e-16 -0 -1.73021e-17 -0 8.01718e-18)
(-2.65817e-18 -2.4215e-17 -0 4.04889e-18 -0 -1.39072e-18)
(6.31377e-19 6.21204e-18 -0 -1.26275e-18 -0 6.31377e-19)
(1.29564e-18 -6.34501e-19 -0 -6.90658e-19 -0 -6.0498e-19)
(1.56847e-20 9.25238e-19 -0 -3.13695e-20 -0 1.56847e-20)
(-5.52945e-19 7.89559e-19 -0 4.72537e-19 -0 8.04074e-20)
(-1.49682e-18 1.02259e-18 -0 1.09379e-18 -0 4.03037e-19)
(-5.48638e-19 1.27728e-18 -0 4.6411e-19 -0 8.45281e-20)
(3.74699e-21 1.21147e-18 -0 -7.49398e-21 -0 3.74699e-21)
(8.54683e-19 8.6331e-20 -0 -4.43406e-19 -0 -4.11277e-19)
(-6.72226e-20 -5.36056e-19 -0 1.34445e-19 -0 -6.72226e-20)
(-9.15598e-19 2.48188e-19 -0 5.65608e-19 -0 3.49991e-19)
(4.47072e-19 3.02273e-19 -0 -2.61416e-19 -0 -1.85656e-19)
(5.43129e-19 3.4283e-19 -0 -4.53649e-19 -0 -8.94809e-20)
(3.29818e-20 -6.84167e-20 -0 -6.59636e-20 -0 3.29818e-20)
(9.78855e-20 5.8298e-19 -0 -1.95771e-19 -0 9.78855e-20)
(8.96127e-19 1.0652e-19 -0 -5.27537e-19 -0 -3.68591e-19)
(-8.92836e-19 9.73392e-20 -0 5.21071e-19 -0 3.71766e-19)
(1.4021e-20 -6.65707e-19 -0 -2.8042e-20 -0 1.4021e-20)
(-2.35906e-17 9.65994e-17 -0 4.27547e-17 -0 -1.91641e-17)
(1.12395e-17 -1.17779e-16 -0 -1.36027e-17 -0 2.36315e-18)
(-2.65825e-18 2.42052e-17 -0 2.78103e-18 -0 -1.22776e-19)
(1.23957e-18 -7.02955e-18 -0 -1.21153e-18 -0 -2.80413e-20)
(-9.23453e-19 5.69953e-19 -0 5.79543e-19 -0 3.4391e-19)
(4.20464e-20 -1.52858e-18 -0 -8.40929e-20 -0 4.20464e-20)
(5.27344e-20 -1.51684e-18 -0 -1.05469e-19 -0 5.27344e-20)
(8.90268e-19 -3.53402e-19 -0 -5.13682e-19 -0 -3.76586e-19)
(-2.15823e-20 -8.14326e-19 -0 4.31646e-20 -0 -2.15823e-20)
(-9.16051e-20 1.54604e-19 -0 1.8321e-19 -0 -9.16051e-20)
(-1.47057e-18 5.87213e-20 -0 1.04177e-18 -0 4.28796e-19)
(-8.8539e-19 1.97817e-19 -0 5.04677e-19 -0 3.80713e-19)
(-9.65118e-20 4.39252e-20 -0 1.93024e-19 -0 -9.65118e-20)
(-1.21045e-19 -2.59459e-19 -0 2.4209e-19 -0 -1.21045e-19)
(-7.05494e-20 3.35417e-19 -0 1.41099e-19 -0 -7.05494e-20)
(8.31515e-19 5.24961e-19 -0 -3.97668e-19 -0 -4.33847e-19)
(-9.07512e-19 1.39053e-19 -0 5.49893e-19 -0 3.57619e-19)
(-8.61938e-19 -8.88733e-20 -0 4.58882e-19 -0 4.03056e-19)
(7.32458e-20 -3.39194e-19 -0 -1.46492e-19 -0 7.32458e-20)
(9.49535e-19 -3.18017e-20 -0 -6.34374e-19 -0 -3.15161e-19)
(7.95493e-17 -6.42246e-17 -0 -1.60364e-16 -0 8.08143e-17)
(-2.43765e-17 8.31466e-17 -0 3.98747e-17 -0 -1.54982e-17)
(7.75509e-18 -1.65179e-17 -0 -1.04381e-17 -0 2.68305e-18)
(-5.12458e-19 3.92963e-18 -0 1.65886e-18 -0 -1.1464e-18)
(8.02051e-19 -1.05684e-18 -0 -9.70286e-19 -0 1.68235e-19)
(5.73466e-19 9.49263e-20 -0 -5.1318e-19 -0 -6.0286e-20)
(1.02677e-18 4.67588e-19 -0 -7.86292e-19 -0 -2.4048e-19)
(5.95832e-19 -4.49374e-19 -0 -5.58102e-19 -0 -3.773e-20)
(1.06484e-19 2.16957e-19 -0 -2.12969e-19 -0 1.06484e-19)
(-7.50414e-20 -7.30582e-19 -0 1.50083e-19 -0 -7.50414e-20)
(-1.1863e-19 -3.05667e-19 -0 2.3726e-19 -0 -1.1863e-19)
(4.60872e-19 -6.47953e-20 -0 -2.88559e-19 -0 -1.72313e-19)
(6.63989e-19 3.67936e-19 -0 -6.94912e-19 -0 3.0923e-20)
(1.07697e-18 -5.3013e-20 -0 -8.87946e-19 -0 -1.89026e-19)
(-1.42309e-20 1.79501e-19 -0 2.84618e-20 -0 -1.42309e-20)
(-1.90246e-19 -7.81061e-20 -0 3.80493e-19 -0 -1.90246e-19)
(-1.03444e-18 -3.96355e-20 -0 8.03492e-19 -0 2.3095e-19)
(-3.67907e-20 2.16831e-19 -0 7.35813e-20 -0 -3.67907e-20)
(3.47058e-20 2.26086e-19 -0 -6.94116e-20 -0 3.47058e-20)
(-1.93707e-20 8.68482e-19 -0 3.87414e-20 -0 -1.93707e-20)
(-1.22183e-16 -1.15383e-17 -0 2.48794e-16 -0 -1.26611e-16)
(2.85986e-17 4.78488e-18 -0 -5.52943e-17 -0 2.66957e-17)
(-8.37618e-18 -1.43277e-18 -0 1.35816e-17 -0 -5.20546e-18)
(7.33542e-19 1.81266e-18 -0 -2.73525e-18 -0 2.0017e-18)
(7.73648e-19 8.42887e-19 -0 -2.79387e-19 -0 -4.94262e-19)
(3.03352e-20 6.68736e-19 -0 -6.06703e-20 -0 3.03352e-20)
(-1.11318e-18 3.31103e-20 -0 9.58835e-19 -0 1.54349e-19)
(-5.22365e-19 -2.40408e-19 -0 4.1103e-19 -0 1.11335e-19)
(3.82258e-19 8.25272e-19 -0 -1.30937e-19 -0 -2.5132e-19)
(-4.50886e-19 -1.41078e-19 -0 2.68262e-19 -0 1.82624e-19)
(7.41369e-20 8.38124e-19 -0 -1.48274e-19 -0 7.41369e-20)
(-8.07226e-19 2.90194e-19 -0 3.47808e-19 -0 4.59417e-19)
(1.03618e-18 -5.64106e-19 -0 -8.05947e-19 -0 -2.3023e-19)
(6.03375e-19 1.24743e-19 -0 -5.73615e-19 -0 -2.97596e-20)
(-3.49702e-19 -6.12052e-19 -0 6.63867e-20 -0 2.83315e-19)
(-3.21209e-20 -4.75677e-19 -0 6.42419e-20 -0 -3.21209e-20)
(-4.88018e-20 -4.07479e-19 -0 9.76035e-20 -0 -4.88018e-20)
(-7.06723e-20 -1.10905e-19 -0 1.41345e-19 -0 -7.06723e-20)
(-1.82095e-19 -4.91104e-20 -0 3.6419e-19 -0 -1.82095e-19)
(-1.01417e-18 -8.81498e-21 -0 7.6311e-19 -0 2.51058e-19)
(8.00201e-17 1.00947e-16 -0 -1.76493e-16 -0 9.64724e-17)
(-9.43446e-18 -1.01687e-16 -0 3.28269e-17 -0 -2.33924e-17)
(3.90082e-18 2.2417e-17 -0 -8.43594e-18 -0 4.53512e-18)
(2.08579e-19 -5.03883e-18 -0 1.48554e-18 -0 -1.69412e-18)
(1.18797e-19 1.26573e-18 -0 -2.37594e-19 -0 1.18797e-19)
(-8.45758e-20 -5.61127e-19 -0 1.69152e-19 -0 -8.45758e-20)
(-9.06785e-19 6.63205e-19 -0 5.4574e-19 -0 3.61045e-19)
(7.89136e-19 1.59119e-19 -0 -3.1057e-19 -0 -4.78566e-19)
(4.23209e-20 -5.23692e-19 -0 -8.46418e-20 -0 4.23209e-20)
(2.11967e-19 3.64956e-19 -0 -4.23935e-19 -0 2.11967e-19)
(1.03557e-18 2.29089e-19 -0 -8.04066e-19 -0 -2.31505e-19)
(-2.37047e-20 -8.75057e-19 -0 4.74094e-20 -0 -2.37047e-20)
(-6.17932e-19 1.51888e-19 -0 6.02514e-19 -0 1.54188e-20)
(-6.51352e-19 -1.90293e-19 -0 6.6942e-19 -0 -1.80685e-20)
(3.02318e-20 -4.50027e-19 -0 -6.04636e-20 -0 3.02318e-20)
(1.85529e-19 -2.12978e-19 -0 -3.71059e-19 -0 1.85529e-19)
(1.21487e-19 -2.98282e-19 -0 -2.42975e-19 -0 1.21487e-19)
(4.4545e-19 -5.32418e-19 -0 -2.5799e-19 -0 -1.8746e-19)
(4.16245e-19 -2.56566e-19 -0 -1.99639e-19 -0 -2.16607e-19)
(-1.35131e-20 -6.09523e-19 -0 2.70261e-20 -0 -1.35131e-20)
(4.24847e-17 -1.18753e-16 -0 -4.636e-17 -0 3.87529e-18)
(-3.11195e-17 1.36448e-16 -0 2.22577e-17 -0 8.86176e-18)
(5.94324e-18 -2.60498e-17 -0 -4.27291e-18 -0 -1.67033e-18)
(-2.55936e-18 6.85309e-18 -0 1.94672e-18 -0 6.12647e-19)
(-1.27039e-19 -6.19712e-19 -0 2.54078e-19 -0 -1.27039e-19)
(-9.5112e-19 1.25679e-18 -0 6.33821e-19 -0 3.17298e-19)
(8.5058e-19 3.07325e-19 -0 -4.32993e-19 -0 -4.17586e-19)
(-1.03214e-18 8.71633e-19 -0 7.96239e-19 -0 2.35898e-19)
(-5.21942e-19 4.23612e-19 -0 4.09992e-19 -0 1.11951e-19)
(4.32656e-19 9.03586e-19 -0 -2.31485e-19 -0 -2.01171e-19)
(1.38751e-20 -7.53255e-20 -0 -2.77502e-20 -0 1.38751e-20)
(-4.54027e-19 2.36707e-19 -0 2.74418e-19 -0 1.7961e-19)
(-9.8584e-19 6.06845e-20 -0 7.04647e-19 -0 2.81193e-19)
(-5.1303e-19 1.02568e-19 -0 3.92613e-19 -0 1.20418e-19)
(-1.9796e-20 9.82133e-19 -0 3.95919e-20 -0 -1.9796e-20)
(4.03871e-19 3.37021e-19 -0 -1.74482e-19 -0 -2.29389e-19)
(-5.68711e-21 7.85071e-19 -0 1.13742e-20 -0 -5.68711e-21)
(-4.18315e-19 7.12859e-19 -0 2.03556e-19 -0 2.14759e-19)
(-2.55881e-19 3.22922e-19 -0 -1.21254e-19 -0 3.77134e-19)
(9.58545e-19 -3.75789e-20 -0 -6.51244e-19 -0 -3.073e-19)
(-1.35761e-16 5.72339e-17 -0 2.44297e-16 -0 -1.08536e-16)
(4.99616e-17 -7.49979e-17 -0 -6.24695e-17 -0 1.25079e-17)
(-1.17855e-17 1.22733e-17 -0 1.46859e-17 -0 -2.9004e-18)
(1.81564e-18 -5.13591e-18 -0 -2.9967e-18 -0 1.18105e-18)
(-2.75136e-19 -8.28484e-19 -0 5.50271e-19 -0 -2.75136e-19)
(-7.33513e-20 -1.07694e-18 -0 1.46703e-19 -0 -7.33513e-20)
(-1.04214e-19 -8.00088e-19 -0 2.08428e-19 -0 -1.04214e-19)
(-4.65274e-20 -9.52399e-19 -0 9.30548e-20 -0 -4.65274e-20)
(-5.54869e-19 -8.1934e-19 -0 4.75662e-19 -0 7.9207e-20)
(-1.10425e-18 -1.07273e-18 -0 9.40482e-19 -0 1.63769e-19)
(-1.01167e-18 -1.29292e-18 -0 7.55577e-19 -0 2.56098e-19)
(4.49408e-19 -6.42893e-19 -0 -2.64996e-19 -0 -1.84411e-19)
(5.59731e-19 -7.61356e-20 -0 -4.85764e-19 -0 -7.39671e-20)
(9.74412e-19 -5.56397e-20 -0 -6.81564e-19 -0 -2.92848e-19)
(-1.1611e-19 -5.58919e-19 -0 2.32221e-19 -0 -1.1611e-19)
(-9.80637e-19 -5.50979e-19 -0 6.94393e-19 -0 2.86245e-19)
(-2.47816e-20 -3.31504e-19 -0 4.95633e-20 -0 -2.47816e-20)
(1.26408e-20 -1.57273e-19 -0 -2.52816e-20 -0 1.26408e-20)
(2.82799e-20 -1.06551e-19 -0 -5.65598e-20 -0 2.82799e-20)
(1.06173e-20 1.27947e-19 -0 -2.12346e-20 -0 1.06173e-20)
(1.51355e-16 5.09625e-17 -0 -2.75478e-16 -0 1.24123e-16)
(-5.49701e-17 -4.30436e-17 -0 6.99348e-17 -0 -1.49647e-17)
(1.39841e-17 7.74852e-18 -0 -1.71758e-17 -0 3.1917e-18)
(-2.18895e-18 -2.47704e-18 -0 3.10834e-18 -0 -9.19387e-19)
(1.21144e-18 -7.55114e-21 -0 -1.15358e-18 -0 -5.78636e-20)
(1.23565e-20 -1.2199e-18 -0 -2.47129e-20 -0 1.23565e-20)
(5.35422e-19 -6.84402e-19 -0 -4.36383e-19 -0 -9.90392e-20)
(1.53215e-19 -6.7186e-19 -0 -3.06429e-19 -0 1.53215e-19)
(8.15737e-20 -5.25959e-19 -0 -1.63147e-19 -0 8.15737e-20)
(4.67333e-19 -6.29787e-19 -0 -3.00463e-19 -0 -1.6687e-19)
(4.30019e-19 1.30001e-19 -0 -2.25958e-19 -0 -2.04061e-19)
(-3.74484e-19 9.80634e-20 -0 1.14957e-19 -0 2.59527e-19)
(5.21995e-20 -4.10365e-19 -0 -1.04399e-19 -0 5.21995e-20)
(-4.65518e-19 -1.51003e-19 -0 2.97216e-19 -0 1.68302e-19)
(1.39044e-20 -5.19856e-19 -0 -2.78089e-20 -0 1.39044e-20)
(1.195e-19 2.0021e-19 -0 -2.39e-19 -0 1.195e-19)
(5.36499e-19 -7.10487e-20 -0 -4.39484e-19 -0 -9.70145e-20)
(5.09581e-19 2.15891e-22 -0 -3.85719e-19 -0 -1.23862e-19)
(-4.64734e-19 9.45003e-21 -0 2.96084e-19 -0 1.6865e-19)
(3.74503e-19 2.07562e-20 -0 -1.15716e-19 -0 -2.58788e-19)
(-2.98068e-18 -1.48071e-16 -0 7.22834e-18 -0 -4.24766e-18)
(-7.69689e-19 1.32631e-16 -0 -1.0014e-18 -0 1.77109e-18)
(2.08482e-19 -2.56162e-17 -0 2.1807e-19 -0 -4.26552e-19)
(-4.70832e-19 7.35596e-18 -0 3.06692e-19 -0 1.64139e-19)
(-4.21572e-20 -4.79213e-21 -0 8.43145e-20 -0 -4.21572e-20)
(5.29239e-20 1.52334e-18 -0 -1.05848e-19 -0 5.29239e-20)
(9.48637e-20 1.20932e-18 -0 -1.89727e-19 -0 9.48637e-20)
(1.86975e-21 6.79768e-19 -0 -3.73951e-21 -0 1.86975e-21)
(2.81102e-20 6.12102e-19 -0 -5.62204e-20 -0 2.81102e-20)
(1.14894e-19 6.24027e-19 -0 -2.29788e-19 -0 1.14894e-19)
(4.37365e-20 9.20724e-19 -0 -8.74729e-20 -0 4.37365e-20)
(4.31715e-19 2.40634e-19 -0 -2.29233e-19 -0 -2.02482e-19)
(-7.21594e-21 1.01171e-18 -0 1.44319e-20 -0 -7.21594e-21)
(4.13087e-19 9.52783e-19 -0 -1.92167e-19 -0 -2.20919e-19)
(6.30823e-20 1.09862e-18 -0 -1.26165e-19 -0 6.30823e-20)
(-5.37643e-20 8.82778e-19 -0 1.07529e-19 -0 -5.37643e-20)
(-4.71377e-20 3.34369e-20 -0 9.42754e-20 -0 -4.71377e-20)
(3.57221e-20 -2.39172e-19 -0 -7.14443e-20 -0 3.57221e-20)
(1.74063e-20 9.59078e-20 -0 -3.48127e-20 -0 1.74063e-20)
(-3.60487e-20 3.09477e-19 -0 7.20974e-20 -0 -3.60487e-20)
(-1.78403e-16 4.83757e-17 -0 3.1245e-16 -0 -1.34048e-16)
(7.23223e-17 -4.69084e-17 -0 -8.42897e-17 -0 1.19674e-17)
(-1.86318e-17 8.57464e-18 -0 2.07496e-17 -0 -2.11771e-18)
(3.3322e-18 -2.41981e-18 -0 -4.124e-18 -0 7.918e-19)
(-3.65666e-19 -4.75728e-19 -0 7.31332e-19 -0 -3.65666e-19)
(2.50263e-20 -1.56298e-19 -0 -5.00526e-20 -0 2.50263e-20)
(-4.67144e-19 -6.08169e-19 -0 2.99504e-19 -0 1.6764e-19)
(-1.13887e-20 -2.54716e-19 -0 2.27775e-20 -0 -1.13887e-20)
(4.3481e-19 -3.78525e-19 -0 -2.35023e-19 -0 -1.99787e-19)
(-3.30694e-20 -1.90446e-20 -0 6.61388e-20 -0 -3.30694e-20)
(-6.31765e-20 -6.62579e-19 -0 1.26353e-19 -0 -6.31765e-20)
(-5.19325e-19 -1.42615e-19 -0 4.04308e-19 -0 1.15017e-19)
(-4.51411e-20 -6.99934e-19 -0 9.02823e-20 -0 -4.51411e-20)
(4.74042e-19 6.05059e-20 -0 -3.13932e-19 -0 -1.6011e-19)
(-4.70155e-19 -4.53832e-19 -0 3.06275e-19 -0 1.6388e-19)
(-9.92992e-19 -5.85259e-19 -0 7.18057e-19 -0 2.74935e-19)
(-4.96047e-19 1.11585e-19 -0 3.58248e-19 -0 1.37799e-19)
(3.9005e-19 2.2027e-19 -0 -1.46325e-19 -0 -2.43725e-19)
(5.85346e-21 1.17139e-19 -0 -1.17069e-20 -0 5.85346e-21)
(-1.1626e-21 -3.24018e-19 -0 2.3252e-21 -0 -1.1626e-21)
(1.08165e-16 9.43176e-17 -0 -1.97952e-16 -0 8.97871e-17)
(-4.00706e-17 -9.76057e-17 -0 5.09907e-17 -0 -1.092e-17)
(1.04224e-17 2.15758e-17 -0 -1.26067e-17 -0 2.18423e-18)
(-9.72114e-19 -4.46934e-18 -0 1.94423e-18 -0 -9.72114e-19)
(3.41064e-19 1.4597e-18 -0 -6.82128e-19 -0 3.41064e-19)
(5.29443e-19 -2.28228e-19 -0 -4.25178e-19 -0 -1.04265e-19)
(5.07382e-19 -5.36206e-21 -0 -3.81057e-19 -0 -1.26325e-19)
(1.2111e-19 2.78564e-19 -0 -2.42219e-19 -0 1.2111e-19)
(1.0108e-19 3.2701e-19 -0 -2.02161e-19 -0 1.0108e-19)
(8.712e-20 1.01903e-19 -0 -1.7424e-19 -0 8.712e-20)
(1.56335e-19 6.4315e-20 -0 -3.12671e-19 -0 1.56335e-19)
(5.33709e-19 -1.03409e-19 -0 -4.33711e-19 -0 -9.99983e-20)
(-7.58559e-21 -1.60799e-19 -0 1.51712e-20 -0 -7.58559e-21)
(-4.62206e-19 -6.2843e-19 -0 2.90705e-19 -0 1.71501e-19)
(3.62418e-20 1.29226e-19 -0 -7.24836e-20 -0 3.62418e-20)
(1.01143e-18 -2.88952e-20 -0 -7.5545e-19 -0 -2.55982e-19)
(4.94351e-20 -1.39339e-19 -0 -9.88702e-20 -0 4.94351e-20)
(-6.32657e-20 -4.13287e-20 -0 1.26531e-19 -0 -6.32657e-20)
(-4.64994e-19 4.89786e-20 -0 2.9628e-19 -0 1.68714e-19)
(4.6995e-19 3.16627e-19 -0 -3.06193e-19 -0 -1.63757e-19)
)
;

boundaryField
{
    movingWall
    {
        type            calculated;
        value           nonuniform List<symmTensor> 
20
(
(2.36815e-16 1.77389e-17 -0 -4.57909e-16 -0 2.21094e-16)
(-6.53889e-17 -6.36391e-17 -0 1.05841e-16 -0 -4.04522e-17)
(1.63272e-17 1.95931e-17 -0 -2.56071e-17 -0 9.27988e-18)
(-2.43726e-18 -1.87387e-18 -0 4.87451e-18 -0 -2.43726e-18)
(7.10802e-19 3.19809e-18 -0 -1.4216e-18 -0 7.10802e-19)
(5.31184e-19 2.02521e-18 -0 -5.20267e-19 -0 -1.09169e-20)
(5.51574e-19 1.32768e-18 -0 -5.61047e-19 -0 9.47299e-21)
(1.57552e-19 1.29951e-18 -0 -3.15103e-19 -0 1.57552e-19)
(1.02828e-19 1.34096e-18 -0 -2.05656e-19 -0 1.02828e-19)
(1.8072e-19 9.7535e-19 -0 -3.61439e-19 -0 1.8072e-19)
(3.35286e-19 1.83137e-18 -0 -6.70572e-19 -0 3.35286e-19)
(6.88835e-19 -8.84606e-20 -0 -8.35568e-19 -0 1.46734e-19)
(9.93914e-20 7.50624e-19 -0 -1.98783e-19 -0 9.93914e-20)
(-4.00779e-19 4.48604e-19 -0 2.59458e-19 -0 1.41322e-19)
(1.1143e-19 9.98724e-19 -0 -2.22861e-19 -0 1.1143e-19)
(9.78212e-19 8.6346e-19 -0 -8.72222e-19 -0 -1.0599e-19)
(4.55152e-20 -1.00738e-18 -0 -9.10304e-20 -0 4.55152e-20)
(-6.24483e-20 -3.53543e-20 -0 1.24897e-19 -0 -6.24483e-20)
(-4.10164e-19 4.18984e-20 -0 2.78226e-19 -0 1.31937e-19)
(4.10682e-19 8.87984e-19 -0 -2.79262e-19 -0 -1.3142e-19)
)
;
    }
    fixedWalls
    {
        type            calculated;
        value           nonuniform List<symmTensor> 
60
(
(1.80594e-16 -5.22319e-16 -0 -2.36844e-16 -0 5.62493e-17)
(-3.01396e-16 -8.04005e-17 -0 4.05617e-16 -0 -1.04221e-16)
(8.82313e-17 5.53192e-16 -0 -1.12514e-16 -0 2.42824e-17)
(2.04065e-16 -3.81911e-16 -0 -2.32272e-16 -0 2.82061e-17)
(-2.64427e-16 -2.52256e-17 -0 3.12139e-16 -0 -4.77116e-17)
(1.38668e-16 3.98776e-16 -0 -1.88518e-16 -0 4.98501e-17)
(2.61067e-17 -5.07925e-16 -0 -6.37596e-17 -0 3.7653e-17)
(-1.4948e-16 1.76978e-16 -0 2.53664e-16 -0 -1.04183e-16)
(1.25283e-16 2.29724e-16 -0 -2.06157e-16 -0 8.08742e-17)
(-3.38725e-17 -4.12535e-16 -0 6.33041e-17 -0 -2.94316e-17)
(-3.54571e-17 4.13027e-16 -0 4.42688e-17 -0 -8.8117e-18)
(8.19298e-17 -2.94177e-16 -0 -1.4432e-16 -0 6.23898e-17)
(-1.07228e-16 -1.34023e-17 -0 2.14456e-16 -0 -1.07228e-16)
(3.88699e-17 3.64912e-16 -0 -1.3636e-16 -0 9.74897e-17)
(1.17371e-16 -4.80016e-16 -0 -8.0198e-17 -0 -3.71725e-17)
(-1.88337e-16 2.57177e-16 -0 2.45223e-16 -0 -5.68862e-17)
(2.04019e-16 1.50493e-16 -0 -2.73035e-16 -0 6.90161e-17)
(2.79245e-19 -4.67855e-16 -0 4.77058e-18 -0 -5.04983e-18)
(-2.67071e-16 1.64171e-16 -0 3.24533e-16 -0 -5.74613e-17)
(1.47181e-16 3.53596e-16 -0 -1.96663e-16 -0 4.94816e-17)
(-1.31692e-18 -3.44099e-19 -0 8.5749e-19 -0 4.59433e-19)
(5.99891e-19 -4.52014e-19 -0 -3.11603e-19 -0 -2.88288e-19)
(1.34876e-20 -2.97467e-19 -0 -2.69753e-20 -0 1.34876e-20)
(-1.91983e-20 -3.71088e-19 -0 3.83966e-20 -0 -1.91983e-20)
(6.36058e-19 -6.83707e-19 -0 -3.83938e-19 -0 -2.5212e-19)
(6.87683e-19 -1.07453e-19 -0 -4.87187e-19 -0 -2.00496e-19)
(2.707e-20 4.31777e-19 -0 -5.41399e-20 -0 2.707e-20)
(-1.71679e-20 5.49665e-20 -0 3.43358e-20 -0 -1.71679e-20)
(-2.28151e-20 5.77194e-20 -0 4.56303e-20 -0 -2.28151e-20)
(6.04142e-19 -6.24025e-19 -0 -3.20105e-19 -0 -2.84037e-19)
(2.45969e-18 1.29855e-19 -0 -1.36668e-18 -0 -1.09302e-18)
(-1.66028e-20 1.00749e-18 -0 3.32055e-20 -0 -1.66028e-20)
(-1.3305e-18 3.02383e-20 -0 8.84646e-19 -0 4.45856e-19)
(-1.1577e-20 -6.83242e-19 -0 2.31539e-20 -0 -1.1577e-20)
(1.28243e-18 -3.92236e-20 -0 -7.88512e-19 -0 -4.93922e-19)
(9.09121e-21 1.76988e-19 -0 -1.81824e-20 -0 9.09121e-21)
(5.51295e-19 1.53237e-20 -0 -2.14412e-19 -0 -3.36883e-19)
(-3.0849e-20 2.03097e-19 -0 6.1698e-20 -0 -3.0849e-20)
(-9.9467e-22 -4.40821e-19 -0 1.98934e-21 -0 -9.9467e-22)
(1.22485e-18 1.97129e-19 -0 -6.73349e-19 -0 -5.51504e-19)
(3.55802e-16 -3.85556e-17 -0 -6.91005e-16 -0 3.35202e-16)
(-9.44221e-17 1.00809e-16 -0 1.57402e-16 -0 -6.29802e-17)
(2.40922e-17 -2.61186e-17 -0 -3.84265e-17 -0 1.43344e-17)
(-4.534e-18 4.01092e-18 -0 7.98379e-18 -0 -3.4498e-18)
(9.69986e-19 -3.7572e-18 -0 -1.93997e-18 -0 9.69986e-19)
(6.48217e-19 -2.0155e-18 -0 -7.54333e-19 -0 1.06116e-19)
(7.8487e-19 -1.72984e-18 -0 -1.02764e-18 -0 2.42768e-19)
(1.62766e-19 -7.40221e-19 -0 -3.25531e-19 -0 1.62766e-19)
(3.90317e-19 -3.64958e-19 -0 -2.38533e-19 -0 -1.51784e-19)
(-4.09653e-19 -4.63038e-19 -0 2.77204e-19 -0 1.32449e-19)
(7.9447e-20 -1.86071e-18 -0 -1.58894e-19 -0 7.9447e-20)
(5.38084e-19 -4.86386e-21 -0 -5.34068e-19 -0 -4.01666e-21)
(9.24173e-20 -8.6493e-19 -0 -1.84835e-19 -0 9.24173e-20)
(4.7609e-19 -4.58013e-19 -0 -4.10079e-19 -0 -6.60112e-20)
(1.29547e-19 -5.88799e-20 -0 -2.59094e-19 -0 1.29547e-19)
(2.71702e-19 -7.55991e-20 -0 -5.43405e-19 -0 2.71702e-19)
(1.05395e-18 9.38304e-19 -0 -1.02369e-18 -0 -3.02562e-20)
(-5.84767e-19 1.6883e-19 -0 8.53318e-20 -0 4.99435e-19)
(6.03732e-19 1.37788e-19 -0 -1.23262e-19 -0 -4.8047e-19)
(-9.52201e-19 7.57503e-19 -0 8.20199e-19 -0 1.32001e-19)
)
;
    }
    frontAndBack
    {
        type            empty;
    }
}


// ************************************************************************* //
