/*--------------------------------*- C++ -*----------------------------------*\
| =========                 |                                                 |
| \\      /  F ield         | OpenFOAM: The Open Source CFD Toolbox           |
|  \\    /   O peration     | Version:  2506                                  |
|   \\  /    A nd           | Website:  www.openfoam.com                      |
|    \\/     M anipulation  |                                                 |
\*---------------------------------------------------------------------------*/
FoamFile
{
    version     2.0;
    format      ascii;
    arch        "LSB;label=32;scalar=64";
    class       volScalarField;
    location    "6.5";
    object      turbulenceProperties:omega;
}
// * * * * * * * * * * * * * * * * * * * * * * * * * * * * * * * * * * * * * //

dimensions      [0 0 -1 0 0 0 0];

internalField   nonuniform List<scalar> 
400
(
4.73538
4.73538
4.73537
4.73537
4.73537
4.73537
4.73536
4.73538
4.73535
4.73538
4.73534
4.73538
4.73535
4.73537
4.73536
4.73537
4.73536
4.73536
4.73536
4.73536
4.82861
4.75107
4.7578
4.76057
4.76611
4.76896
4.77449
4.77742
4.78293
4.78595
4.79144
4.79454
4.80002
4.80319
4.80866
4.8119
4.81738
4.82068
4.82344
4.82784
4.96137
4.87823
4.8856
4.88856
4.89461
4.89766
4.90367
4.9068
4.91276
4.91596
4.92189
4.92516
4.93106
4.93439
4.94027
4.94365
4.94951
4.95294
4.95588
4.96052
5.08351
4.99616
5.00387
5.00701
5.01336
5.01656
5.02286
5.02616
5.03241
5.03579
5.042
5.04545
5.05163
5.05514
5.0613
5.06486
5.07102
5.07462
5.07771
5.08259
5.17355
5.08293
5.09096
5.09419
5.10077
5.10411
5.11063
5.11406
5.12052
5.12406
5.13046
5.13408
5.14045
5.14413
5.15049
5.15421
5.16057
5.16433
5.16753
5.17259
5.23207
5.13929
5.14746
5.15081
5.15752
5.16096
5.16761
5.17115
5.17775
5.18137
5.18792
5.19163
5.19815
5.20192
5.20843
5.21224
5.21876
5.2226
5.22588
5.23106
5.26767
5.17355
5.18187
5.18523
5.19207
5.19552
5.20231
5.20585
5.2126
5.21622
5.22293
5.22663
5.23329
5.23707
5.24372
5.24755
5.25418
5.25807
5.26139
5.26665
5.28915
5.19424
5.2026
5.20603
5.21288
5.21639
5.22321
5.22681
5.23359
5.23727
5.244
5.24776
5.25446
5.25829
5.26497
5.26885
5.27553
5.27946
5.28281
5.28812
5.30283
5.20739
5.21583
5.21924
5.22615
5.22968
5.23654
5.24016
5.24696
5.25068
5.25742
5.26123
5.26794
5.27181
5.27851
5.28243
5.28913
5.29309
5.29646
5.30179
5.31263
5.21682
5.2253
5.22872
5.23567
5.2392
5.24609
5.24971
5.25655
5.26027
5.26706
5.27086
5.27762
5.28148
5.28823
5.29214
5.29888
5.30284
5.30623
5.31158
5.32078
5.22468
5.23318
5.23662
5.24357
5.24713
5.25402
5.25768
5.2645
5.26827
5.27505
5.27889
5.28565
5.28955
5.29629
5.30024
5.30698
5.31097
5.31436
5.31973
5.32852
5.23214
5.24064
5.2441
5.25108
5.25461
5.26159
5.26519
5.27212
5.27581
5.28269
5.28647
5.2933
5.29717
5.30396
5.3079
5.31468
5.31867
5.32207
5.32746
5.33653
5.23985
5.2484
5.25186
5.25885
5.26243
5.26936
5.27304
5.27992
5.2837
5.29053
5.29439
5.30119
5.3051
5.31189
5.31586
5.32264
5.32665
5.33007
5.33547
5.34526
5.24826
5.25682
5.26029
5.26735
5.27088
5.2779
5.28151
5.2885
5.2922
5.29913
5.30293
5.30981
5.3137
5.32054
5.3245
5.33132
5.33533
5.33876
5.34418
5.35492
5.25757
5.2662
5.26965
5.27672
5.28029
5.28731
5.29097
5.29794
5.30169
5.30863
5.31245
5.31935
5.32325
5.33013
5.33409
5.34095
5.34497
5.34841
5.35385
5.36558
5.26785
5.27648
5.27997
5.28708
5.29064
5.29771
5.30136
5.30839
5.31213
5.3191
5.32293
5.32987
5.33378
5.34068
5.34466
5.35154
5.35558
5.35904
5.3645
5.37684
5.27871
5.28736
5.29089
5.29799
5.30161
5.30866
5.31237
5.31939
5.32318
5.33015
5.33403
5.34096
5.34491
5.35183
5.35584
5.36274
5.3668
5.37027
5.37575
5.38772
5.28921
5.29793
5.30142
5.30859
5.31218
5.3193
5.32298
5.33006
5.33384
5.34085
5.34473
5.3517
5.35566
5.36261
5.36663
5.37356
5.37764
5.38112
5.38662
5.39656
5.29968
5.30812
5.31148
5.31844
5.32194
5.32887
5.33249
5.33938
5.34314
5.34997
5.35386
5.36068
5.36467
5.37149
5.37556
5.38239
5.38654
5.38999
5.39549
5.40057
5.40055
5.40058
5.40053
5.40059
5.40052
5.40058
5.40052
5.40057
5.40053
5.40056
5.40054
5.40055
5.40055
5.40055
5.40055
5.40055
5.40055
5.40055
5.40055
)
;

boundaryField
{
    movingWall
    {
        type            calculated;
        value           nonuniform List<scalar> 
20
(
5.40057
5.40055
5.40058
5.40053
5.40059
5.40052
5.40058
5.40052
5.40057
5.40053
5.40056
5.40054
5.40055
5.40055
5.40055
5.40055
5.40055
5.40055
5.40055
5.40055
)
;
    }
    fixedWalls
    {
        type            calculated;
        value           nonuniform List<scalar> 
60
(
4.73538
4.82861
4.96137
5.08351
5.17355
5.23207
5.26767
5.28915
5.30283
5.31263
5.32078
5.32852
5.33653
5.34526
5.35492
5.36558
5.37684
5.38772
5.39656
5.40057
4.73536
4.82784
4.96052
5.08259
5.17259
5.23106
5.26665
5.28812
5.30179
5.31158
5.31973
5.32746
5.33547
5.34418
5.35385
5.3645
5.37575
5.38662
5.39549
5.40055
4.73538
4.73538
4.73537
4.73537
4.73537
4.73537
4.73536
4.73538
4.73535
4.73538
4.73534
4.73538
4.73535
4.73537
4.73536
4.73537
4.73536
4.73536
4.73536
4.73536
)
;
    }
    frontAndBack
    {
        type            empty;
    }
}


// ************************************************************************* //
