/*--------------------------------*- C++ -*----------------------------------*\
| =========                 |                                                 |
| \\      /  F ield         | OpenFOAM: The Open Source CFD Toolbox           |
|  \\    /   O peration     | Version:  2506                                  |
|   \\  /    A nd           | Website:  www.openfoam.com                      |
|    \\/     M anipulation  |                                                 |
\*---------------------------------------------------------------------------*/
FoamFile
{
    version     2.0;
    format      ascii;
    arch        "LSB;label=32;scalar=64";
    class       volSymmTensorField;
    location    "6.5";
    object      turbulenceProperties:R;
}
// * * * * * * * * * * * * * * * * * * * * * * * * * * * * * * * * * * * * * //

dimensions      [0 2 -2 0 0 0 0];

internalField   nonuniform List<symmTensor> 
400
(
(4.68313e-06 -1.63096e-17 -0 4.68313e-06 -0 4.68313e-06)
(4.68312e-06 1.8493e-17 -0 4.68312e-06 -0 4.68312e-06)
(4.68312e-06 -3.79415e-18 -0 4.68312e-06 -0 4.68312e-06)
(4.68312e-06 8.84182e-19 -0 4.68312e-06 -0 4.68312e-06)
(4.68312e-06 -2.68179e-19 -0 4.68312e-06 -0 4.68312e-06)
(4.68312e-06 -5.00154e-20 -0 4.68312e-06 -0 4.68312e-06)
(4.68311e-06 -7.35171e-20 -0 4.68311e-06 -0 4.68311e-06)
(4.68311e-06 2.19486e-20 -0 4.68311e-06 -0 4.68311e-06)
(4.6831e-06 -2.84702e-20 -0 4.6831e-06 -0 4.6831e-06)
(4.68311e-06 -4.30198e-20 -0 4.68311e-06 -0 4.68311e-06)
(4.6831e-06 -1.2513e-20 -0 4.6831e-06 -0 4.6831e-06)
(4.68311e-06 -7.21525e-22 -0 4.68311e-06 -0 4.68311e-06)
(4.6831e-06 3.44871e-21 -0 4.6831e-06 -0 4.6831e-06)
(4.68311e-06 -2.0655e-21 -0 4.68311e-06 -0 4.68311e-06)
(4.6831e-06 1.11892e-19 -0 4.6831e-06 -0 4.6831e-06)
(4.6831e-06 6.9203e-20 -0 4.6831e-06 -0 4.6831e-06)
(4.6831e-06 8.78536e-20 -0 4.6831e-06 -0 4.6831e-06)
(4.6831e-06 2.5045e-20 -0 4.6831e-06 -0 4.6831e-06)
(4.6831e-06 2.044e-20 -0 4.6831e-06 -0 4.6831e-06)
(4.6831e-06 -1.9385e-20 -0 4.6831e-06 -0 4.6831e-06)
(4.86804e-06 -3.28517e-18 -0 4.86804e-06 -0 4.86804e-06)
(4.86804e-06 3.19827e-18 -0 4.86804e-06 -0 4.86804e-06)
(4.86777e-06 -4.99445e-19 -0 4.86777e-06 -0 4.86777e-06)
(4.86766e-06 2.33697e-19 -0 4.86766e-06 -0 4.86766e-06)
(4.86749e-06 5.73413e-20 -0 4.86749e-06 -0 4.86749e-06)
(4.86738e-06 1.4304e-19 -0 4.86738e-06 -0 4.86738e-06)
(4.86723e-06 9.18466e-20 -0 4.86723e-06 -0 4.86723e-06)
(4.86714e-06 2.0744e-20 -0 4.86714e-06 -0 4.86714e-06)
(4.86701e-06 5.8199e-21 -0 4.86701e-06 -0 4.86701e-06)
(4.86694e-06 -3.83952e-20 -0 4.86694e-06 -0 4.86694e-06)
(4.86684e-06 7.82674e-20 -0 4.86684e-06 -0 4.86684e-06)
(4.86677e-06 -3.30939e-21 -0 4.86677e-06 -0 4.86677e-06)
(4.8667e-06 7.6846e-20 -0 4.8667e-06 -0 4.8667e-06)
(4.86664e-06 -2.05744e-22 -0 4.86664e-06 -0 4.86664e-06)
(4.86659e-06 -2.88556e-20 -0 4.86659e-06 -0 4.86659e-06)
(4.86656e-06 -8.19765e-20 -0 4.86656e-06 -0 4.86656e-06)
(4.86653e-06 -8.19445e-20 -0 4.86653e-06 -0 4.86653e-06)
(4.86651e-06 1.82861e-20 -0 4.86651e-06 -0 4.86651e-06)
(4.86649e-06 1.49016e-20 -0 4.86649e-06 -0 4.86649e-06)
(4.86649e-06 -3.24302e-20 -0 4.86649e-06 -0 4.86649e-06)
(5.13777e-06 2.27066e-17 -0 5.13777e-06 -0 5.13777e-06)
(5.13778e-06 -2.09994e-17 -0 5.13778e-06 -0 5.13778e-06)
(5.13743e-06 4.30219e-18 -0 5.13743e-06 -0 5.13743e-06)
(5.13735e-06 -9.32127e-19 -0 5.13735e-06 -0 5.13735e-06)
(5.13713e-06 2.70325e-19 -0 5.13713e-06 -0 5.13713e-06)
(5.13702e-06 -4.71523e-20 -0 5.13702e-06 -0 5.13702e-06)
(5.13685e-06 1.14576e-19 -0 5.13685e-06 -0 5.13685e-06)
(5.13675e-06 6.68653e-20 -0 5.13675e-06 -0 5.13675e-06)
(5.13661e-06 1.46275e-19 -0 5.13661e-06 -0 5.13661e-06)
(5.13652e-06 8.62106e-20 -0 5.13652e-06 -0 5.13652e-06)
(5.1364e-06 7.39005e-21 -0 5.1364e-06 -0 5.1364e-06)
(5.13633e-06 -7.74416e-20 -0 5.13633e-06 -0 5.13633e-06)
(5.13624e-06 -9.29821e-20 -0 5.13624e-06 -0 5.13624e-06)
(5.13619e-06 -8.05465e-21 -0 5.13619e-06 -0 5.13619e-06)
(5.13612e-06 -1.66044e-19 -0 5.13612e-06 -0 5.13612e-06)
(5.13609e-06 -2.64072e-20 -0 5.13609e-06 -0 5.13609e-06)
(5.13605e-06 -2.9947e-21 -0 5.13605e-06 -0 5.13605e-06)
(5.13603e-06 -1.63846e-20 -0 5.13603e-06 -0 5.13603e-06)
(5.13602e-06 -3.6988e-20 -0 5.13602e-06 -0 5.13602e-06)
(5.13601e-06 -3.16187e-20 -0 5.13601e-06 -0 5.13601e-06)
(5.39262e-06 -1.62829e-17 -0 5.39262e-06 -0 5.39262e-06)
(5.39262e-06 1.4747e-17 -0 5.39262e-06 -0 5.39262e-06)
(5.39227e-06 -3.23563e-18 -0 5.39227e-06 -0 5.39227e-06)
(5.39215e-06 6.34031e-19 -0 5.39215e-06 -0 5.39215e-06)
(5.39191e-06 -2.47368e-19 -0 5.39191e-06 -0 5.39191e-06)
(5.39179e-06 3.23814e-20 -0 5.39179e-06 -0 5.39179e-06)
(5.3916e-06 -5.59003e-20 -0 5.3916e-06 -0 5.3916e-06)
(5.39149e-06 -1.58827e-20 -0 5.39149e-06 -0 5.39149e-06)
(5.39134e-06 -2.57811e-20 -0 5.39134e-06 -0 5.39134e-06)
(5.39123e-06 7.51339e-20 -0 5.39123e-06 -0 5.39123e-06)
(5.39112e-06 -1.03094e-21 -0 5.39112e-06 -0 5.39112e-06)
(5.39103e-06 9.21625e-20 -0 5.39103e-06 -0 5.39103e-06)
(5.39094e-06 6.02059e-20 -0 5.39094e-06 -0 5.39094e-06)
(5.39087e-06 -2.77976e-21 -0 5.39087e-06 -0 5.39087e-06)
(5.39081e-06 7.11411e-20 -0 5.39081e-06 -0 5.39081e-06)
(5.39076e-06 8.01861e-20 -0 5.39076e-06 -0 5.39076e-06)
(5.39073e-06 1.05635e-20 -0 5.39073e-06 -0 5.39073e-06)
(5.3907e-06 -1.78281e-20 -0 5.3907e-06 -0 5.3907e-06)
(5.39069e-06 5.40416e-20 -0 5.39069e-06 -0 5.39069e-06)
(5.39068e-06 -3.09884e-20 -0 5.39068e-06 -0 5.39068e-06)
(5.58468e-06 -2.13252e-18 -0 5.58468e-06 -0 5.58468e-06)
(5.58469e-06 7.52375e-19 -0 5.58469e-06 -0 5.58469e-06)
(5.58428e-06 -5.06256e-19 -0 5.58428e-06 -0 5.58428e-06)
(5.58417e-06 -1.60936e-19 -0 5.58417e-06 -0 5.58417e-06)
(5.58392e-06 -2.07509e-19 -0 5.58392e-06 -0 5.58392e-06)
(5.58378e-06 -2.28229e-19 -0 5.58378e-06 -0 5.58378e-06)
(5.58359e-06 -2.09938e-19 -0 5.58359e-06 -0 5.58359e-06)
(5.58345e-06 -1.80909e-19 -0 5.58345e-06 -0 5.58345e-06)
(5.58331e-06 -2.36898e-19 -0 5.58331e-06 -0 5.58331e-06)
(5.58317e-06 -1.11396e-19 -0 5.58317e-06 -0 5.58317e-06)
(5.58308e-06 -1.45251e-19 -0 5.58308e-06 -0 5.58308e-06)
(5.58295e-06 -2.01251e-20 -0 5.58295e-06 -0 5.58295e-06)
(5.58289e-06 -4.04254e-20 -0 5.58289e-06 -0 5.58289e-06)
(5.58278e-06 3.04955e-20 -0 5.58278e-06 -0 5.58278e-06)
(5.58274e-06 4.13027e-20 -0 5.58274e-06 -0 5.58274e-06)
(5.58267e-06 -1.20117e-19 -0 5.58267e-06 -0 5.58267e-06)
(5.58265e-06 -1.17664e-21 -0 5.58265e-06 -0 5.58265e-06)
(5.58261e-06 2.27556e-20 -0 5.58261e-06 -0 5.58261e-06)
(5.5826e-06 -4.06184e-20 -0 5.5826e-06 -0 5.5826e-06)
(5.5826e-06 -7.24188e-20 -0 5.5826e-06 -0 5.5826e-06)
(5.71138e-06 1.60902e-17 -0 5.71138e-06 -0 5.71138e-06)
(5.71137e-06 -1.58956e-17 -0 5.71137e-06 -0 5.71137e-06)
(5.71099e-06 3.40036e-18 -0 5.71099e-06 -0 5.71099e-06)
(5.71084e-06 -8.1117e-19 -0 5.71084e-06 -0 5.71084e-06)
(5.7106e-06 1.2049e-19 -0 5.7106e-06 -0 5.7106e-06)
(5.71043e-06 -6.61435e-20 -0 5.71043e-06 -0 5.71043e-06)
(5.71026e-06 4.4781e-21 -0 5.71026e-06 -0 5.71026e-06)
(5.71008e-06 -7.33341e-20 -0 5.71008e-06 -0 5.71008e-06)
(5.70996e-06 -3.37144e-20 -0 5.70996e-06 -0 5.70996e-06)
(5.7098e-06 -1.03342e-19 -0 5.7098e-06 -0 5.7098e-06)
(5.70971e-06 -4.51981e-20 -0 5.70971e-06 -0 5.70971e-06)
(5.70957e-06 -5.01433e-20 -0 5.70957e-06 -0 5.70957e-06)
(5.70952e-06 -4.11527e-21 -0 5.70952e-06 -0 5.70952e-06)
(5.7094e-06 -6.63219e-20 -0 5.7094e-06 -0 5.7094e-06)
(5.70936e-06 -6.12893e-20 -0 5.70936e-06 -0 5.70936e-06)
(5.70928e-06 5.99988e-21 -0 5.70928e-06 -0 5.70928e-06)
(5.70926e-06 -1.16962e-20 -0 5.70926e-06 -0 5.70926e-06)
(5.70922e-06 -1.99994e-20 -0 5.70922e-06 -0 5.70922e-06)
(5.70921e-06 -2.06732e-21 -0 5.70921e-06 -0 5.70921e-06)
(5.7092e-06 -1.08367e-21 -0 5.7092e-06 -0 5.7092e-06)
(5.78925e-06 -1.86687e-17 -0 5.78925e-06 -0 5.78925e-06)
(5.78926e-06 2.06833e-17 -0 5.78926e-06 -0 5.78926e-06)
(5.78884e-06 -4.06773e-18 -0 5.78884e-06 -0 5.78884e-06)
(5.78871e-06 1.16958e-18 -0 5.78871e-06 -0 5.78871e-06)
(5.78843e-06 -5.55723e-20 -0 5.78843e-06 -0 5.78843e-06)
(5.7883e-06 1.7249e-19 -0 5.7883e-06 -0 5.7883e-06)
(5.78806e-06 1.29969e-19 -0 5.78806e-06 -0 5.78806e-06)
(5.78795e-06 1.2098e-19 -0 5.78795e-06 -0 5.78795e-06)
(5.78774e-06 1.51767e-19 -0 5.78774e-06 -0 5.78774e-06)
(5.78765e-06 7.43374e-20 -0 5.78765e-06 -0 5.78765e-06)
(5.78749e-06 9.58176e-20 -0 5.78749e-06 -0 5.78749e-06)
(5.78741e-06 6.1495e-20 -0 5.78741e-06 -0 5.78741e-06)
(5.7873e-06 9.68114e-21 -0 5.7873e-06 -0 5.7873e-06)
(5.78723e-06 9.55374e-20 -0 5.78723e-06 -0 5.78723e-06)
(5.78714e-06 1.06697e-19 -0 5.78714e-06 -0 5.78714e-06)
(5.7871e-06 9.53307e-20 -0 5.7871e-06 -0 5.7871e-06)
(5.78705e-06 6.7935e-20 -0 5.78705e-06 -0 5.78705e-06)
(5.78703e-06 1.08491e-19 -0 5.78703e-06 -0 5.78703e-06)
(5.78701e-06 4.40825e-20 -0 5.78701e-06 -0 5.78701e-06)
(5.78701e-06 7.00799e-20 -0 5.78701e-06 -0 5.78701e-06)
(5.83648e-06 6.63898e-18 -0 5.83648e-06 -0 5.83648e-06)
(5.83647e-06 -7.1001e-18 -0 5.83647e-06 -0 5.83647e-06)
(5.83607e-06 1.58283e-18 -0 5.83607e-06 -0 5.83607e-06)
(5.83591e-06 -2.2135e-19 -0 5.83591e-06 -0 5.83591e-06)
(5.83567e-06 1.6703e-19 -0 5.83567e-06 -0 5.83567e-06)
(5.83549e-06 3.56934e-20 -0 5.83549e-06 -0 5.83549e-06)
(5.83529e-06 -4.26395e-21 -0 5.83529e-06 -0 5.83529e-06)
(5.83514e-06 1.24538e-19 -0 5.83514e-06 -0 5.83514e-06)
(5.83497e-06 2.58334e-20 -0 5.83497e-06 -0 5.83497e-06)
(5.83484e-06 4.60266e-20 -0 5.83484e-06 -0 5.83484e-06)
(5.83472e-06 1.15474e-19 -0 5.83472e-06 -0 5.83472e-06)
(5.8346e-06 1.25855e-19 -0 5.8346e-06 -0 5.8346e-06)
(5.83451e-06 3.57792e-20 -0 5.83451e-06 -0 5.83451e-06)
(5.83442e-06 -8.44426e-21 -0 5.83442e-06 -0 5.83442e-06)
(5.83435e-06 -2.19823e-20 -0 5.83435e-06 -0 5.83435e-06)
(5.8343e-06 1.04888e-20 -0 5.8343e-06 -0 5.8343e-06)
(5.83425e-06 -6.65975e-20 -0 5.83425e-06 -0 5.83425e-06)
(5.83423e-06 -1.18266e-21 -0 5.83423e-06 -0 5.83423e-06)
(5.83421e-06 -1.22165e-20 -0 5.83421e-06 -0 5.83421e-06)
(5.8342e-06 -3.83388e-22 -0 5.8342e-06 -0 5.8342e-06)
(5.86667e-06 8.20418e-18 -0 5.86667e-06 -0 5.86667e-06)
(5.86668e-06 -9.39212e-18 -0 5.86668e-06 -0 5.86668e-06)
(5.86623e-06 1.7568e-18 -0 5.86623e-06 -0 5.86623e-06)
(5.86611e-06 -5.69528e-19 -0 5.86611e-06 -0 5.86611e-06)
(5.86584e-06 -5.09286e-20 -0 5.86584e-06 -0 5.86584e-06)
(5.86567e-06 -7.20199e-20 -0 5.86567e-06 -0 5.86567e-06)
(5.86546e-06 -4.34372e-20 -0 5.86546e-06 -0 5.86546e-06)
(5.8653e-06 -1.40902e-19 -0 5.8653e-06 -0 5.8653e-06)
(5.86515e-06 -2.02841e-19 -0 5.86515e-06 -0 5.86515e-06)
(5.86499e-06 -1.75365e-19 -0 5.86499e-06 -0 5.86499e-06)
(5.86489e-06 -1.4291e-19 -0 5.86489e-06 -0 5.86489e-06)
(5.86474e-06 1.05811e-20 -0 5.86474e-06 -0 5.86474e-06)
(5.86468e-06 -6.44017e-20 -0 5.86468e-06 -0 5.86468e-06)
(5.86457e-06 -4.08668e-20 -0 5.86457e-06 -0 5.86457e-06)
(5.86452e-06 -8.59664e-20 -0 5.86452e-06 -0 5.86452e-06)
(5.86444e-06 -2.03951e-20 -0 5.86444e-06 -0 5.86444e-06)
(5.86442e-06 -6.60611e-20 -0 5.86442e-06 -0 5.86442e-06)
(5.86438e-06 -8.92577e-20 -0 5.86438e-06 -0 5.86438e-06)
(5.86437e-06 -1.15908e-20 -0 5.86437e-06 -0 5.86437e-06)
(5.86436e-06 3.10367e-21 -0 5.86436e-06 -0 5.86436e-06)
(5.88833e-06 -1.44571e-17 -0 5.88833e-06 -0 5.88833e-06)
(5.88834e-06 1.68678e-17 -0 5.88834e-06 -0 5.88834e-06)
(5.88789e-06 -3.50108e-18 -0 5.88789e-06 -0 5.88789e-06)
(5.88777e-06 8.97637e-19 -0 5.88777e-06 -0 5.88777e-06)
(5.88748e-06 -9.15773e-20 -0 5.88748e-06 -0 5.88748e-06)
(5.88733e-06 1.33459e-19 -0 5.88733e-06 -0 5.88733e-06)
(5.88711e-06 1.13757e-19 -0 5.88711e-06 -0 5.88711e-06)
(5.88696e-06 1.47241e-19 -0 5.88696e-06 -0 5.88696e-06)
(5.8868e-06 1.83705e-19 -0 5.8868e-06 -0 5.8868e-06)
(5.88666e-06 1.7413e-19 -0 5.88666e-06 -0 5.88666e-06)
(5.88653e-06 1.23948e-20 -0 5.88653e-06 -0 5.88653e-06)
(5.88641e-06 -7.69144e-20 -0 5.88641e-06 -0 5.88641e-06)
(5.88631e-06 3.55709e-20 -0 5.88631e-06 -0 5.88631e-06)
(5.88623e-06 4.32948e-20 -0 5.88623e-06 -0 5.88623e-06)
(5.88615e-06 4.90496e-20 -0 5.88615e-06 -0 5.88615e-06)
(5.8861e-06 -9.78229e-21 -0 5.8861e-06 -0 5.8861e-06)
(5.88605e-06 8.32636e-20 -0 5.88605e-06 -0 5.88605e-06)
(5.88603e-06 1.52038e-20 -0 5.88603e-06 -0 5.88603e-06)
(5.88601e-06 1.38858e-20 -0 5.88601e-06 -0 5.88601e-06)
(5.886e-06 -9.48833e-20 -0 5.886e-06 -0 5.886e-06)
(5.90637e-06 1.37887e-17 -0 5.90637e-06 -0 5.90637e-06)
(5.90638e-06 -1.70764e-17 -0 5.90638e-06 -0 5.90638e-06)
(5.90592e-06 3.50431e-18 -0 5.90592e-06 -0 5.90592e-06)
(5.90579e-06 -1.01711e-18 -0 5.90579e-06 -0 5.90579e-06)
(5.90552e-06 8.23704e-20 -0 5.90552e-06 -0 5.90552e-06)
(5.90535e-06 -2.20779e-19 -0 5.90535e-06 -0 5.90535e-06)
(5.90516e-06 -2.1883e-19 -0 5.90516e-06 -0 5.90516e-06)
(5.90498e-06 -5.09527e-20 -0 5.90498e-06 -0 5.90498e-06)
(5.90485e-06 -1.17275e-19 -0 5.90485e-06 -0 5.90485e-06)
(5.90467e-06 2.22511e-20 -0 5.90467e-06 -0 5.90467e-06)
(5.90457e-06 8.44195e-21 -0 5.90457e-06 -0 5.90457e-06)
(5.90442e-06 2.84205e-20 -0 5.90442e-06 -0 5.90442e-06)
(5.90435e-06 6.30377e-21 -0 5.90435e-06 -0 5.90435e-06)
(5.90424e-06 -3.72112e-20 -0 5.90424e-06 -0 5.90424e-06)
(5.90419e-06 4.80522e-20 -0 5.90419e-06 -0 5.90419e-06)
(5.90411e-06 7.51576e-20 -0 5.90411e-06 -0 5.90411e-06)
(5.90409e-06 1.98861e-20 -0 5.90409e-06 -0 5.90409e-06)
(5.90405e-06 -1.27017e-20 -0 5.90405e-06 -0 5.90405e-06)
(5.90404e-06 -4.84506e-20 -0 5.90404e-06 -0 5.90404e-06)
(5.90403e-06 -4.53862e-21 -0 5.90403e-06 -0 5.90403e-06)
(5.9235e-06 -9.17881e-18 -0 5.9235e-06 -0 5.9235e-06)
(5.9235e-06 1.20702e-17 -0 5.9235e-06 -0 5.9235e-06)
(5.92307e-06 -2.3944e-18 -0 5.92307e-06 -0 5.92307e-06)
(5.92292e-06 5.69297e-19 -0 5.92292e-06 -0 5.92292e-06)
(5.92264e-06 -1.52927e-19 -0 5.92264e-06 -0 5.92264e-06)
(5.92251e-06 1.37279e-20 -0 5.92251e-06 -0 5.92251e-06)
(5.92224e-06 6.75415e-20 -0 5.92224e-06 -0 5.92224e-06)
(5.92215e-06 -6.48717e-20 -0 5.92215e-06 -0 5.92215e-06)
(5.92191e-06 3.12836e-20 -0 5.92191e-06 -0 5.92191e-06)
(5.92183e-06 -1.0528e-19 -0 5.92183e-06 -0 5.92183e-06)
(5.92165e-06 -4.39978e-20 -0 5.92165e-06 -0 5.92165e-06)
(5.92158e-06 -9.32086e-21 -0 5.92158e-06 -0 5.92158e-06)
(5.92144e-06 5.28683e-20 -0 5.92144e-06 -0 5.92144e-06)
(5.92138e-06 -7.61255e-21 -0 5.92138e-06 -0 5.92138e-06)
(5.92129e-06 2.57473e-20 -0 5.92129e-06 -0 5.92129e-06)
(5.92124e-06 -1.11962e-20 -0 5.92124e-06 -0 5.92124e-06)
(5.9212e-06 -5.67536e-21 -0 5.9212e-06 -0 5.9212e-06)
(5.92117e-06 3.10277e-20 -0 5.92117e-06 -0 5.92117e-06)
(5.92115e-06 3.23342e-20 -0 5.92115e-06 -0 5.92115e-06)
(5.92114e-06 1.241e-19 -0 5.92114e-06 -0 5.92114e-06)
(5.94127e-06 -1.65114e-18 -0 5.94127e-06 -0 5.94127e-06)
(5.94128e-06 6.95516e-19 -0 5.94128e-06 -0 5.94128e-06)
(5.94083e-06 -2.0796e-19 -0 5.94083e-06 -0 5.94083e-06)
(5.94069e-06 2.62945e-19 -0 5.94069e-06 -0 5.94069e-06)
(5.94042e-06 1.22126e-19 -0 5.94042e-06 -0 5.94042e-06)
(5.94024e-06 9.68346e-20 -0 5.94024e-06 -0 5.94024e-06)
(5.94005e-06 4.78892e-21 -0 5.94005e-06 -0 5.94005e-06)
(5.93987e-06 -3.47499e-20 -0 5.93987e-06 -0 5.93987e-06)
(5.93972e-06 1.19154e-19 -0 5.93972e-06 -0 5.93972e-06)
(5.93955e-06 -2.0356e-20 -0 5.93955e-06 -0 5.93955e-06)
(5.93945e-06 1.20797e-19 -0 5.93945e-06 -0 5.93945e-06)
(5.9393e-06 4.17981e-20 -0 5.9393e-06 -0 5.9393e-06)
(5.93923e-06 -8.11608e-20 -0 5.93923e-06 -0 5.93923e-06)
(5.93912e-06 1.79357e-20 -0 5.93912e-06 -0 5.93912e-06)
(5.93907e-06 -8.7905e-20 -0 5.93907e-06 -0 5.93907e-06)
(5.93899e-06 -6.82739e-20 -0 5.93899e-06 -0 5.93899e-06)
(5.93896e-06 -5.84214e-20 -0 5.93896e-06 -0 5.93896e-06)
(5.93892e-06 -1.58905e-20 -0 5.93892e-06 -0 5.93892e-06)
(5.93891e-06 -7.03264e-21 -0 5.93891e-06 -0 5.93891e-06)
(5.9389e-06 -1.26121e-21 -0 5.9389e-06 -0 5.9389e-06)
(5.96063e-06 1.44656e-17 -0 5.96063e-06 -0 5.96063e-06)
(5.96064e-06 -1.48018e-17 -0 5.96064e-06 -0 5.96064e-06)
(5.9602e-06 3.25832e-18 -0 5.9602e-06 -0 5.9602e-06)
(5.96007e-06 -7.31971e-19 -0 5.96007e-06 -0 5.96007e-06)
(5.95975e-06 1.83648e-19 -0 5.95975e-06 -0 5.95975e-06)
(5.95964e-06 -8.13677e-20 -0 5.95964e-06 -0 5.95964e-06)
(5.95936e-06 9.60564e-20 -0 5.95936e-06 -0 5.95936e-06)
(5.95927e-06 2.30324e-20 -0 5.95927e-06 -0 5.95927e-06)
(5.95903e-06 -7.57161e-20 -0 5.95903e-06 -0 5.95903e-06)
(5.95895e-06 5.27338e-20 -0 5.95895e-06 -0 5.95895e-06)
(5.95876e-06 3.30639e-20 -0 5.95876e-06 -0 5.95876e-06)
(5.95869e-06 -1.26216e-19 -0 5.95869e-06 -0 5.95869e-06)
(5.95855e-06 2.18832e-20 -0 5.95855e-06 -0 5.95855e-06)
(5.95849e-06 -2.73991e-20 -0 5.95849e-06 -0 5.95849e-06)
(5.9584e-06 -6.47243e-20 -0 5.9584e-06 -0 5.9584e-06)
(5.95835e-06 -3.06115e-20 -0 5.95835e-06 -0 5.95835e-06)
(5.95831e-06 -4.28249e-20 -0 5.95831e-06 -0 5.95831e-06)
(5.95828e-06 -7.63908e-20 -0 5.95828e-06 -0 5.95828e-06)
(5.95826e-06 -3.67914e-20 -0 5.95826e-06 -0 5.95826e-06)
(5.95825e-06 -8.73294e-20 -0 5.95825e-06 -0 5.95825e-06)
(5.98215e-06 -1.70435e-17 -0 5.98215e-06 -0 5.98215e-06)
(5.98217e-06 1.98928e-17 -0 5.98217e-06 -0 5.98217e-06)
(5.98169e-06 -3.79224e-18 -0 5.98169e-06 -0 5.98169e-06)
(5.98158e-06 9.97074e-19 -0 5.98158e-06 -0 5.98158e-06)
(5.98127e-06 -9.00563e-20 -0 5.98127e-06 -0 5.98127e-06)
(5.98113e-06 1.82527e-19 -0 5.98113e-06 -0 5.98113e-06)
(5.98089e-06 4.45815e-20 -0 5.98089e-06 -0 5.98089e-06)
(5.98076e-06 1.26364e-19 -0 5.98076e-06 -0 5.98076e-06)
(5.98055e-06 6.13419e-20 -0 5.98055e-06 -0 5.98055e-06)
(5.98045e-06 1.30764e-19 -0 5.98045e-06 -0 5.98045e-06)
(5.98027e-06 -1.08884e-20 -0 5.98027e-06 -0 5.98027e-06)
(5.98019e-06 3.41949e-20 -0 5.98019e-06 -0 5.98019e-06)
(5.98006e-06 8.75666e-21 -0 5.98006e-06 -0 5.98006e-06)
(5.97999e-06 1.4791e-20 -0 5.97999e-06 -0 5.97999e-06)
(5.9799e-06 1.41471e-19 -0 5.9799e-06 -0 5.9799e-06)
(5.97986e-06 4.85151e-20 -0 5.97986e-06 -0 5.97986e-06)
(5.9798e-06 1.12888e-19 -0 5.9798e-06 -0 5.9798e-06)
(5.97978e-06 1.02438e-19 -0 5.97978e-06 -0 5.97978e-06)
(5.97976e-06 4.63782e-20 -0 5.97976e-06 -0 5.97976e-06)
(5.97975e-06 -5.39241e-21 -0 5.97975e-06 -0 5.97975e-06)
(6.00589e-06 8.2281e-18 -0 6.00589e-06 -0 6.00589e-06)
(6.0059e-06 -1.09527e-17 -0 6.0059e-06 -0 6.0059e-06)
(6.00544e-06 1.78978e-18 -0 6.00544e-06 -0 6.00544e-06)
(6.00531e-06 -7.48518e-19 -0 6.00531e-06 -0 6.00531e-06)
(6.00499e-06 -1.20601e-19 -0 6.00499e-06 -0 6.00499e-06)
(6.00487e-06 -1.56675e-19 -0 6.00487e-06 -0 6.00487e-06)
(6.0046e-06 -1.16261e-19 -0 6.0046e-06 -0 6.0046e-06)
(6.0045e-06 -1.3831e-19 -0 6.0045e-06 -0 6.0045e-06)
(6.00426e-06 -1.18848e-19 -0 6.00426e-06 -0 6.00426e-06)
(6.00418e-06 -1.55508e-19 -0 6.00418e-06 -0 6.00418e-06)
(6.00399e-06 -1.87212e-19 -0 6.00399e-06 -0 6.00399e-06)
(6.00392e-06 -9.30311e-20 -0 6.00392e-06 -0 6.00392e-06)
(6.00377e-06 -1.10049e-20 -0 6.00377e-06 -0 6.00377e-06)
(6.00372e-06 -8.03723e-21 -0 6.00372e-06 -0 6.00372e-06)
(6.00362e-06 -8.06461e-20 -0 6.00362e-06 -0 6.00362e-06)
(6.00358e-06 -7.94494e-20 -0 6.00358e-06 -0 6.00358e-06)
(6.00352e-06 -4.77487e-20 -0 6.00352e-06 -0 6.00352e-06)
(6.0035e-06 -2.26384e-20 -0 6.0035e-06 -0 6.0035e-06)
(6.00348e-06 -1.53288e-20 -0 6.00348e-06 -0 6.00348e-06)
(6.00347e-06 1.83909e-20 -0 6.00347e-06 -0 6.00347e-06)
(6.03101e-06 7.33956e-18 -0 6.03101e-06 -0 6.03101e-06)
(6.03101e-06 -6.29745e-18 -0 6.03101e-06 -0 6.03101e-06)
(6.03057e-06 1.13199e-18 -0 6.03057e-06 -0 6.03057e-06)
(6.03041e-06 -3.61659e-19 -0 6.03041e-06 -0 6.03041e-06)
(6.03014e-06 -1.10119e-21 -0 6.03014e-06 -0 6.03014e-06)
(6.02997e-06 -1.77792e-19 -0 6.02997e-06 -0 6.02997e-06)
(6.02974e-06 -9.96303e-20 -0 6.02974e-06 -0 6.02974e-06)
(6.02959e-06 -9.77441e-20 -0 6.02959e-06 -0 6.02959e-06)
(6.0294e-06 -7.64297e-20 -0 6.0294e-06 -0 6.0294e-06)
(6.02928e-06 -9.14601e-20 -0 6.02928e-06 -0 6.02928e-06)
(6.02912e-06 1.88577e-20 -0 6.02912e-06 -0 6.02912e-06)
(6.02902e-06 1.42158e-20 -0 6.02902e-06 -0 6.02902e-06)
(6.0289e-06 -5.9422e-20 -0 6.0289e-06 -0 6.0289e-06)
(6.02882e-06 -2.18515e-20 -0 6.02882e-06 -0 6.02882e-06)
(6.02874e-06 -7.51441e-20 -0 6.02874e-06 -0 6.02874e-06)
(6.02868e-06 2.89212e-20 -0 6.02868e-06 -0 6.02868e-06)
(6.02864e-06 -1.02519e-20 -0 6.02864e-06 -0 6.02864e-06)
(6.02861e-06 3.11314e-23 -0 6.02861e-06 -0 6.02861e-06)
(6.02859e-06 1.36194e-21 -0 6.02859e-06 -0 6.02859e-06)
(6.02858e-06 2.98877e-21 -0 6.02858e-06 -0 6.02858e-06)
(6.05533e-06 -2.13616e-17 -0 6.05533e-06 -0 6.05533e-06)
(6.05535e-06 1.94383e-17 -0 6.05535e-06 -0 6.05535e-06)
(6.05486e-06 -3.74875e-18 -0 6.05486e-06 -0 6.05486e-06)
(6.05475e-06 1.07587e-18 -0 6.05475e-06 -0 6.05475e-06)
(6.05442e-06 -7.00049e-22 -0 6.05442e-06 -0 6.05442e-06)
(6.0543e-06 2.22402e-19 -0 6.0543e-06 -0 6.0543e-06)
(6.05402e-06 1.76348e-19 -0 6.05402e-06 -0 6.05402e-06)
(6.05392e-06 9.90663e-20 -0 6.05392e-06 -0 6.05392e-06)
(6.05368e-06 8.91007e-20 -0 6.05368e-06 -0 6.05368e-06)
(6.05359e-06 9.07805e-20 -0 6.05359e-06 -0 6.05359e-06)
(6.05341e-06 1.33789e-19 -0 6.05341e-06 -0 6.05341e-06)
(6.05332e-06 3.49439e-20 -0 6.05332e-06 -0 6.05332e-06)
(6.05319e-06 1.4675e-19 -0 6.05319e-06 -0 6.05319e-06)
(6.05312e-06 1.38114e-19 -0 6.05312e-06 -0 6.05312e-06)
(6.05303e-06 1.59076e-19 -0 6.05303e-06 -0 6.05303e-06)
(6.05298e-06 1.2774e-19 -0 6.05298e-06 -0 6.05298e-06)
(6.05293e-06 4.83304e-21 -0 6.05293e-06 -0 6.05293e-06)
(6.0529e-06 -3.45478e-20 -0 6.0529e-06 -0 6.0529e-06)
(6.05288e-06 1.38459e-20 -0 6.05288e-06 -0 6.05288e-06)
(6.05288e-06 4.46392e-20 -0 6.05288e-06 -0 6.05288e-06)
(6.07513e-06 6.98866e-18 -0 6.07513e-06 -0 6.07513e-06)
(6.07516e-06 -6.88242e-18 -0 6.07516e-06 -0 6.07516e-06)
(6.07467e-06 1.25628e-18 -0 6.07467e-06 -0 6.07467e-06)
(6.07458e-06 -3.54334e-19 -0 6.07458e-06 -0 6.07458e-06)
(6.07425e-06 -6.95798e-20 -0 6.07425e-06 -0 6.07425e-06)
(6.07413e-06 -2.2847e-20 -0 6.07413e-06 -0 6.07413e-06)
(6.07387e-06 -8.87973e-20 -0 6.07387e-06 -0 6.07387e-06)
(6.07376e-06 -3.71684e-20 -0 6.07376e-06 -0 6.07376e-06)
(6.07353e-06 -5.51719e-20 -0 6.07353e-06 -0 6.07353e-06)
(6.07343e-06 -2.77414e-21 -0 6.07343e-06 -0 6.07343e-06)
(6.07328e-06 -9.64075e-20 -0 6.07328e-06 -0 6.07328e-06)
(6.07317e-06 -2.07378e-20 -0 6.07317e-06 -0 6.07317e-06)
(6.07305e-06 -1.01666e-19 -0 6.07305e-06 -0 6.07305e-06)
(6.07297e-06 8.78283e-21 -0 6.07297e-06 -0 6.07297e-06)
(6.07289e-06 -6.58044e-20 -0 6.07289e-06 -0 6.07289e-06)
(6.07283e-06 -8.48053e-20 -0 6.07283e-06 -0 6.07283e-06)
(6.07279e-06 1.61513e-20 -0 6.07279e-06 -0 6.07279e-06)
(6.07276e-06 3.18616e-20 -0 6.07276e-06 -0 6.07276e-06)
(6.07274e-06 1.69347e-20 -0 6.07274e-06 -0 6.07274e-06)
(6.07273e-06 -4.68019e-20 -0 6.07273e-06 -0 6.07273e-06)
(6.08409e-06 1.36342e-17 -0 6.08409e-06 -0 6.08409e-06)
(6.08408e-06 -1.41096e-17 -0 6.08408e-06 -0 6.08408e-06)
(6.08408e-06 3.11892e-18 -0 6.08408e-06 -0 6.08408e-06)
(6.08406e-06 -6.46076e-19 -0 6.08406e-06 -0 6.08406e-06)
(6.08408e-06 2.11009e-19 -0 6.08408e-06 -0 6.08408e-06)
(6.08405e-06 -3.29919e-20 -0 6.08405e-06 -0 6.08405e-06)
(6.08407e-06 -7.75119e-22 -0 6.08407e-06 -0 6.08407e-06)
(6.08405e-06 4.02685e-20 -0 6.08405e-06 -0 6.08405e-06)
(6.08407e-06 4.72713e-20 -0 6.08407e-06 -0 6.08407e-06)
(6.08405e-06 1.47307e-20 -0 6.08405e-06 -0 6.08405e-06)
(6.08406e-06 9.29713e-21 -0 6.08406e-06 -0 6.08406e-06)
(6.08405e-06 -1.49485e-20 -0 6.08405e-06 -0 6.08405e-06)
(6.08405e-06 -2.32446e-20 -0 6.08405e-06 -0 6.08405e-06)
(6.08405e-06 -9.08437e-20 -0 6.08405e-06 -0 6.08405e-06)
(6.08405e-06 1.86805e-20 -0 6.08405e-06 -0 6.08405e-06)
(6.08405e-06 -4.17699e-21 -0 6.08405e-06 -0 6.08405e-06)
(6.08405e-06 -2.01424e-20 -0 6.08405e-06 -0 6.08405e-06)
(6.08405e-06 -5.97433e-21 -0 6.08405e-06 -0 6.08405e-06)
(6.08405e-06 7.08018e-21 -0 6.08405e-06 -0 6.08405e-06)
(6.08405e-06 4.57705e-20 -0 6.08405e-06 -0 6.08405e-06)
)
;

boundaryField
{
    movingWall
    {
        type            kqRWallFunction;
        value           nonuniform List<symmTensor> 
20
(
(6.08409e-06 0 -0 6.08409e-06 -0 6.08409e-06)
(6.08408e-06 -0 -0 6.08408e-06 -0 6.08408e-06)
(6.08408e-06 0 -0 6.08408e-06 -0 6.08408e-06)
(6.08406e-06 -0 -0 6.08406e-06 -0 6.08406e-06)
(6.08408e-06 0 -0 6.08408e-06 -0 6.08408e-06)
(6.08405e-06 0 -0 6.08405e-06 -0 6.08405e-06)
(6.08407e-06 0 -0 6.08407e-06 -0 6.08407e-06)
(6.08405e-06 0 -0 6.08405e-06 -0 6.08405e-06)
(6.08407e-06 0 -0 6.08407e-06 -0 6.08407e-06)
(6.08405e-06 0 -0 6.08405e-06 -0 6.08405e-06)
(6.08406e-06 0 -0 6.08406e-06 -0 6.08406e-06)
(6.08405e-06 -0 -0 6.08405e-06 -0 6.08405e-06)
(6.08405e-06 0 -0 6.08405e-06 -0 6.08405e-06)
(6.08405e-06 0 -0 6.08405e-06 -0 6.08405e-06)
(6.08405e-06 0 -0 6.08405e-06 -0 6.08405e-06)
(6.08405e-06 0 -0 6.08405e-06 -0 6.08405e-06)
(6.08405e-06 -0 -0 6.08405e-06 -0 6.08405e-06)
(6.08405e-06 -0 -0 6.08405e-06 -0 6.08405e-06)
(6.08405e-06 0 -0 6.08405e-06 -0 6.08405e-06)
(6.08405e-06 0 -0 6.08405e-06 -0 6.08405e-06)
)
;
    }
    fixedWalls
    {
        type            kqRWallFunction;
        value           nonuniform List<symmTensor> 
60
(
(4.68313e-06 -0 -0 4.68313e-06 -0 4.68313e-06)
(4.86804e-06 -0 -0 4.86804e-06 -0 4.86804e-06)
(5.13777e-06 0 -0 5.13777e-06 -0 5.13777e-06)
(5.39262e-06 -0 -0 5.39262e-06 -0 5.39262e-06)
(5.58468e-06 -0 -0 5.58468e-06 -0 5.58468e-06)
(5.71138e-06 0 -0 5.71138e-06 -0 5.71138e-06)
(5.78925e-06 -0 -0 5.78925e-06 -0 5.78925e-06)
(5.83648e-06 0 -0 5.83648e-06 -0 5.83648e-06)
(5.86667e-06 0 -0 5.86667e-06 -0 5.86667e-06)
(5.88833e-06 -0 -0 5.88833e-06 -0 5.88833e-06)
(5.90637e-06 0 -0 5.90637e-06 -0 5.90637e-06)
(5.9235e-06 -0 -0 5.9235e-06 -0 5.9235e-06)
(5.94127e-06 -0 -0 5.94127e-06 -0 5.94127e-06)
(5.96063e-06 0 -0 5.96063e-06 -0 5.96063e-06)
(5.98215e-06 -0 -0 5.98215e-06 -0 5.98215e-06)
(6.00589e-06 0 -0 6.00589e-06 -0 6.00589e-06)
(6.03101e-06 0 -0 6.03101e-06 -0 6.03101e-06)
(6.05533e-06 -0 -0 6.05533e-06 -0 6.05533e-06)
(6.07513e-06 0 -0 6.07513e-06 -0 6.07513e-06)
(6.08409e-06 0 -0 6.08409e-06 -0 6.08409e-06)
(4.6831e-06 -0 -0 4.6831e-06 -0 4.6831e-06)
(4.86649e-06 -0 -0 4.86649e-06 -0 4.86649e-06)
(5.13601e-06 -0 -0 5.13601e-06 -0 5.13601e-06)
(5.39068e-06 -0 -0 5.39068e-06 -0 5.39068e-06)
(5.5826e-06 -0 -0 5.5826e-06 -0 5.5826e-06)
(5.7092e-06 -0 -0 5.7092e-06 -0 5.7092e-06)
(5.78701e-06 0 -0 5.78701e-06 -0 5.78701e-06)
(5.8342e-06 0 -0 5.8342e-06 -0 5.8342e-06)
(5.86436e-06 0 -0 5.86436e-06 -0 5.86436e-06)
(5.886e-06 -0 -0 5.886e-06 -0 5.886e-06)
(5.90403e-06 0 -0 5.90403e-06 -0 5.90403e-06)
(5.92114e-06 0 -0 5.92114e-06 -0 5.92114e-06)
(5.9389e-06 0 -0 5.9389e-06 -0 5.9389e-06)
(5.95825e-06 -0 -0 5.95825e-06 -0 5.95825e-06)
(5.97975e-06 -0 -0 5.97975e-06 -0 5.97975e-06)
(6.00347e-06 0 -0 6.00347e-06 -0 6.00347e-06)
(6.02858e-06 0 -0 6.02858e-06 -0 6.02858e-06)
(6.05288e-06 0 -0 6.05288e-06 -0 6.05288e-06)
(6.07273e-06 -0 -0 6.07273e-06 -0 6.07273e-06)
(6.08405e-06 0 -0 6.08405e-06 -0 6.08405e-06)
(4.68313e-06 -0 -0 4.68313e-06 -0 4.68313e-06)
(4.68312e-06 0 -0 4.68312e-06 -0 4.68312e-06)
(4.68312e-06 -0 -0 4.68312e-06 -0 4.68312e-06)
(4.68312e-06 0 -0 4.68312e-06 -0 4.68312e-06)
(4.68312e-06 -0 -0 4.68312e-06 -0 4.68312e-06)
(4.68312e-06 -0 -0 4.68312e-06 -0 4.68312e-06)
(4.68311e-06 -0 -0 4.68311e-06 -0 4.68311e-06)
(4.68311e-06 -0 -0 4.68311e-06 -0 4.68311e-06)
(4.6831e-06 -0 -0 4.6831e-06 -0 4.6831e-06)
(4.68311e-06 -0 -0 4.68311e-06 -0 4.68311e-06)
(4.6831e-06 -0 -0 4.6831e-06 -0 4.6831e-06)
(4.68311e-06 -0 -0 4.68311e-06 -0 4.68311e-06)
(4.6831e-06 -0 -0 4.6831e-06 -0 4.6831e-06)
(4.68311e-06 -0 -0 4.68311e-06 -0 4.68311e-06)
(4.6831e-06 -0 -0 4.6831e-06 -0 4.6831e-06)
(4.6831e-06 -0 -0 4.6831e-06 -0 4.6831e-06)
(4.6831e-06 0 -0 4.6831e-06 -0 4.6831e-06)
(4.6831e-06 0 -0 4.6831e-06 -0 4.6831e-06)
(4.6831e-06 0 -0 4.6831e-06 -0 4.6831e-06)
(4.6831e-06 0 -0 4.6831e-06 -0 4.6831e-06)
)
;
    }
    frontAndBack
    {
        type            empty;
    }
}


// ************************************************************************* //
