/*--------------------------------*- C++ -*----------------------------------*\
| =========                 |                                                 |
| \\      /  F ield         | OpenFOAM: The Open Source CFD Toolbox           |
|  \\    /   O peration     | Version:  2506                                  |
|   \\  /    A nd           | Website:  www.openfoam.com                      |
|    \\/     M anipulation  |                                                 |
\*---------------------------------------------------------------------------*/
FoamFile
{
    version     2.0;
    format      ascii;
    arch        "LSB;label=32;scalar=64";
    class       volScalarField;
    location    "6.5";
    object      turbulenceProperties:L;
}
// * * * * * * * * * * * * * * * * * * * * * * * * * * * * * * * * * * * * * //

dimensions      [0 1 0 0 0 0 0];

internalField   nonuniform List<scalar> 
400
(
0.00102188
0.00102188
0.00102188
0.00102188
0.00102188
0.00102188
0.00102188
0.00102187
0.00102188
0.00102187
0.00102188
0.00102187
0.00102188
0.00102187
0.00102188
0.00102188
0.00102188
0.00102188
0.00102188
0.00102188
0.00102174
0.00103841
0.00103692
0.0010363
0.00103508
0.00103445
0.00103323
0.00103259
0.00103139
0.00103073
0.00102954
0.00102887
0.00102768
0.001027
0.00102582
0.00102513
0.00102396
0.00102326
0.00102267
0.00102174
0.00102158
0.00103899
0.00103738
0.00103675
0.00103544
0.00103479
0.0010335
0.00103284
0.00103157
0.00103089
0.00102963
0.00102894
0.0010277
0.001027
0.00102578
0.00102507
0.00102385
0.00102314
0.00102253
0.00102158
0.00102146
0.00103932
0.00103768
0.00103702
0.00103569
0.00103501
0.0010337
0.00103301
0.00103171
0.00103101
0.00102973
0.00102901
0.00102775
0.00102703
0.00102577
0.00102504
0.0010238
0.00102307
0.00102244
0.00102146
0.0010214
0.00103961
0.00103793
0.00103726
0.0010359
0.00103521
0.00103387
0.00103317
0.00103185
0.00103113
0.00102983
0.00102909
0.00102781
0.00102707
0.00102579
0.00102505
0.00102378
0.00102303
0.0010224
0.0010214
0.00102137
0.00103981
0.00103812
0.00103743
0.00103606
0.00103535
0.00103401
0.00103328
0.00103196
0.00103122
0.00102991
0.00102916
0.00102787
0.00102711
0.00102582
0.00102506
0.00102378
0.00102303
0.00102238
0.00102137
0.00102136
0.00103994
0.00103823
0.00103755
0.00103616
0.00103546
0.00103408
0.00103337
0.00103201
0.00103129
0.00102995
0.00102921
0.00102789
0.00102715
0.00102584
0.00102508
0.00102379
0.00102303
0.00102238
0.00102136
0.00102135
0.00104001
0.0010383
0.00103761
0.00103622
0.00103551
0.00103414
0.00103341
0.00103206
0.00103132
0.00102999
0.00102924
0.00102792
0.00102716
0.00102585
0.00102509
0.00102379
0.00102303
0.00102238
0.00102135
0.00102135
0.00104007
0.00103834
0.00103765
0.00103626
0.00103554
0.00103417
0.00103344
0.00103209
0.00103134
0.00103001
0.00102925
0.00102794
0.00102717
0.00102586
0.0010251
0.0010238
0.00102303
0.00102237
0.00102135
0.00102134
0.0010401
0.00103837
0.00103768
0.00103628
0.00103557
0.00103419
0.00103346
0.00103211
0.00103136
0.00103002
0.00102927
0.00102794
0.00102718
0.00102587
0.0010251
0.00102379
0.00102303
0.00102237
0.00102134
0.00102134
0.00104013
0.0010384
0.0010377
0.0010363
0.00103559
0.00103421
0.00103347
0.00103212
0.00103137
0.00103004
0.00102927
0.00102795
0.00102718
0.00102587
0.0010251
0.0010238
0.00102303
0.00102237
0.00102134
0.00102133
0.00104015
0.00103842
0.00103772
0.00103632
0.00103561
0.00103421
0.0010335
0.00103212
0.00103139
0.00103003
0.00102929
0.00102795
0.0010272
0.00102587
0.00102511
0.00102379
0.00102302
0.00102237
0.00102133
0.00102133
0.00104017
0.00103844
0.00103774
0.00103634
0.00103562
0.00103424
0.0010335
0.00103214
0.00103139
0.00103005
0.00102929
0.00102796
0.00102719
0.00102588
0.0010251
0.00102379
0.00102302
0.00102236
0.00102133
0.00102132
0.0010402
0.00103847
0.00103777
0.00103635
0.00103565
0.00103425
0.00103353
0.00103214
0.00103142
0.00103005
0.00102931
0.00102796
0.0010272
0.00102587
0.00102511
0.00102379
0.00102302
0.00102236
0.00102132
0.00102132
0.00104023
0.00103848
0.00103779
0.00103638
0.00103566
0.00103427
0.00103354
0.00103216
0.00103142
0.00103006
0.00102931
0.00102797
0.00102721
0.00102588
0.00102511
0.00102379
0.00102302
0.00102236
0.00102132
0.00102131
0.00104026
0.00103852
0.00103782
0.0010364
0.00103569
0.00103428
0.00103356
0.00103217
0.00103144
0.00103007
0.00102932
0.00102797
0.00102721
0.00102588
0.00102511
0.00102379
0.00102301
0.00102235
0.00102131
0.0010213
0.00104028
0.00103854
0.00103784
0.00103642
0.0010357
0.00103431
0.00103357
0.00103219
0.00103145
0.00103008
0.00102933
0.00102798
0.00102721
0.00102588
0.00102511
0.00102378
0.00102301
0.00102234
0.0010213
0.00102129
0.00104031
0.00103856
0.00103787
0.00103644
0.00103573
0.00103431
0.00103359
0.0010322
0.00103146
0.00103009
0.00102933
0.00102798
0.00102722
0.00102588
0.0010251
0.00102378
0.001023
0.00102234
0.00102129
0.00102128
0.00103996
0.00103826
0.00103759
0.00103621
0.00103552
0.00103415
0.00103344
0.00103208
0.00103135
0.00103002
0.00102926
0.00102794
0.00102717
0.00102586
0.00102508
0.00102377
0.00102298
0.00102233
0.00102128
0.00102128
0.00102128
0.00102127
0.00102128
0.00102127
0.00102128
0.00102127
0.00102128
0.00102127
0.00102128
0.00102128
0.00102128
0.00102128
0.00102128
0.00102128
0.00102128
0.00102128
0.00102128
0.00102128
0.00102128
)
;

boundaryField
{
    movingWall
    {
        type            calculated;
        value           nonuniform List<scalar> 
20
(
0.00102128
0.00102128
0.00102127
0.00102128
0.00102127
0.00102128
0.00102127
0.00102128
0.00102127
0.00102128
0.00102128
0.00102128
0.00102128
0.00102128
0.00102128
0.00102128
0.00102128
0.00102128
0.00102128
0.00102128
)
;
    }
    fixedWalls
    {
        type            calculated;
        value           nonuniform List<scalar> 
60
(
0.00102188
0.00102174
0.00102158
0.00102146
0.0010214
0.00102137
0.00102136
0.00102135
0.00102135
0.00102134
0.00102134
0.00102133
0.00102133
0.00102132
0.00102132
0.00102131
0.0010213
0.00102129
0.00102128
0.00102128
0.00102188
0.00102174
0.00102158
0.00102146
0.0010214
0.00102137
0.00102136
0.00102135
0.00102135
0.00102134
0.00102134
0.00102133
0.00102133
0.00102132
0.00102132
0.00102131
0.0010213
0.00102129
0.00102128
0.00102128
0.00102188
0.00102188
0.00102188
0.00102188
0.00102188
0.00102188
0.00102188
0.00102187
0.00102188
0.00102187
0.00102188
0.00102187
0.00102188
0.00102187
0.00102188
0.00102188
0.00102188
0.00102188
0.00102188
0.00102188
)
;
    }
    frontAndBack
    {
        type            empty;
    }
}


// ************************************************************************* //
