/*--------------------------------*- C++ -*----------------------------------*\
| =========                 |                                                 |
| \\      /  F ield         | OpenFOAM: The Open Source CFD Toolbox           |
|  \\    /   O peration     | Version:  2506                                  |
|   \\  /    A nd           | Website:  www.openfoam.com                      |
|    \\/     M anipulation  |                                                 |
\*---------------------------------------------------------------------------*/
FoamFile
{
    version     2.0;
    format      ascii;
    arch        "LSB;label=32;scalar=64";
    class       volVectorField;
    location    "6.5";
    object      vorticityField;
}
// * * * * * * * * * * * * * * * * * * * * * * * * * * * * * * * * * * * * * //

dimensions      [0 0 -1 0 0 0 0];

internalField   nonuniform List<vector> 
400
(
(0 -0 9.15124e-12)
(0 -0 -1.18699e-11)
(0 -0 2.66607e-12)
(0 -0 -6.50242e-13)
(0 -0 1.2657e-13)
(0 -0 -7.47045e-14)
(0 -0 -5.8862e-14)
(0 -0 -1.47957e-14)
(0 -0 -3.50182e-14)
(0 -0 -2.52101e-14)
(0 -0 8.43508e-15)
(0 -0 4.86386e-16)
(0 -0 -2.3248e-15)
(0 -0 1.39237e-15)
(0 -0 8.72032e-14)
(0 -0 6.177e-14)
(0 -0 4.91976e-14)
(0 -0 -1.6883e-14)
(0 -0 -1.37788e-14)
(0 -0 1.30676e-14)
(0 -0 7.08707e-13)
(0 -0 -1.37621e-12)
(0 -0 3.79652e-13)
(0 -0 -4.39504e-14)
(0 -0 1.25199e-13)
(0 -0 1.23409e-13)
(0 -0 4.83559e-14)
(0 -0 -1.35744e-14)
(0 -0 -3.8129e-15)
(0 -0 -2.90392e-14)
(0 -0 5.70503e-14)
(0 -0 2.17352e-15)
(0 -0 5.78915e-14)
(0 -0 1.35375e-16)
(0 -0 -3.5202e-14)
(0 -0 -5.4383e-14)
(0 -0 -5.43422e-14)
(0 -0 -1.20759e-14)
(0 -0 -9.8465e-15)
(0 -0 2.14484e-14)
(0 -0 -5.29385e-12)
(0 -0 1.06903e-11)
(0 -0 -2.45648e-12)
(0 -0 6.45535e-13)
(0 -0 -6.3289e-14)
(0 -0 8.41803e-14)
(0 -0 8.97135e-14)
(0 -0 6.58389e-14)
(0 -0 1.23573e-13)
(0 -0 5.34144e-14)
(0 -0 -4.72095e-15)
(0 -0 -5.89151e-14)
(0 -0 -1.03119e-13)
(0 -0 -4.90513e-14)
(0 -0 -1.10366e-13)
(0 -0 1.69452e-14)
(0 -0 1.92396e-15)
(0 -0 -4.36765e-14)
(0 -0 -3.04163e-14)
(0 -0 2.03589e-14)
(0 -0 3.1857e-12)
(0 -0 -7.37382e-12)
(0 -0 1.67645e-12)
(0 -0 -4.46707e-13)
(0 -0 4.49139e-14)
(0 -0 -2.00852e-14)
(0 -0 -1.9492e-14)
(0 -0 9.871e-15)
(0 -0 1.60431e-14)
(0 -0 6.16333e-14)
(0 -0 6.42787e-16)
(0 -0 5.09171e-14)
(0 -0 1.65991e-14)
(0 -0 1.73777e-15)
(0 -0 6.38917e-14)
(0 -0 5.81946e-14)
(0 -0 -6.62465e-15)
(0 -0 -4.30216e-14)
(0 -0 2.02741e-14)
(0 -0 1.94782e-14)
(0 -0 -8.51384e-13)
(0 -0 -2.39678e-13)
(0 -0 -7.17828e-14)
(0 -0 -1.18964e-13)
(0 -0 -1.44681e-13)
(0 -0 -1.86178e-13)
(0 -0 -1.42947e-13)
(0 -0 -1.06373e-13)
(0 -0 -1.26209e-13)
(0 -0 -4.0263e-14)
(0 -0 -7.36465e-14)
(0 -0 1.2338e-14)
(0 -0 2.48145e-14)
(0 -0 3.54772e-14)
(0 -0 -2.54032e-14)
(0 -0 -1.42908e-13)
(0 -0 7.25118e-16)
(0 -0 4.01764e-14)
(0 -0 -2.91445e-14)
(0 -0 -9.47675e-15)
(0 -0 -4.67661e-12)
(0 -0 8.18038e-12)
(0 -0 -1.88059e-12)
(0 -0 3.79328e-13)
(0 -0 -1.80967e-13)
(0 -0 -1.43574e-14)
(0 -0 -2.70169e-15)
(0 -0 -9.93497e-15)
(0 -0 2.03813e-14)
(0 -0 -4.59017e-14)
(0 -0 -2.68317e-14)
(0 -0 -2.38137e-14)
(0 -0 2.49779e-15)
(0 -0 -6.81356e-14)
(0 -0 -7.11457e-14)
(0 -0 -3.65169e-15)
(0 -0 7.12756e-15)
(0 -0 1.21965e-14)
(0 -0 1.26154e-15)
(0 -0 6.61943e-16)
(0 -0 7.96346e-12)
(0 -0 -1.10213e-11)
(0 -0 2.5359e-12)
(0 -0 -4.81592e-13)
(0 -0 2.50072e-13)
(0 -0 5.94135e-14)
(0 -0 8.47531e-14)
(0 -0 9.00885e-14)
(0 -0 1.25717e-13)
(0 -0 6.3755e-14)
(0 -0 5.07731e-14)
(0 -0 1.71859e-14)
(0 -0 -5.83626e-15)
(0 -0 5.07834e-14)
(0 -0 4.39685e-14)
(0 -0 5.07918e-14)
(0 -0 6.73006e-14)
(0 -0 9.6914e-14)
(0 -0 2.7491e-14)
(0 -0 1.16911e-14)
(0 -0 -2.65568e-12)
(0 -0 3.83307e-12)
(0 -0 -8.32261e-13)
(0 -0 2.9427e-13)
(0 -0 8.95053e-15)
(0 -0 3.2939e-14)
(0 -0 2.54446e-15)
(0 -0 8.82607e-14)
(0 -0 3.87629e-14)
(0 -0 8.08783e-14)
(0 -0 9.34417e-14)
(0 -0 3.29558e-14)
(0 -0 -2.14815e-14)
(0 -0 5.0736e-15)
(0 -0 1.32247e-14)
(0 -0 -6.31483e-15)
(0 -0 -6.82738e-14)
(0 -0 7.13468e-16)
(0 -0 7.37462e-15)
(0 -0 2.31668e-16)
(0 -0 -3.9138e-12)
(0 -0 5.06987e-12)
(0 -0 -1.25819e-12)
(0 -0 1.75186e-13)
(0 -0 -1.32381e-13)
(0 -0 4.28074e-14)
(0 -0 2.58531e-14)
(0 -0 -7.87076e-14)
(0 -0 -1.50076e-13)
(0 -0 -1.12176e-13)
(0 -0 -7.72252e-14)
(0 -0 -6.32817e-15)
(0 -0 -6.98543e-14)
(0 -0 -2.97193e-14)
(0 -0 -2.62588e-15)
(0 -0 1.22473e-14)
(0 -0 -6.86998e-14)
(0 -0 -5.47119e-14)
(0 -0 6.97886e-15)
(0 -0 -1.87062e-15)
(0 -0 6.96105e-12)
(0 -0 -9.25802e-12)
(0 -0 2.17982e-12)
(0 -0 -4.2302e-13)
(0 -0 2.16923e-13)
(0 -0 8.34524e-14)
(0 -0 9.50501e-14)
(0 -0 7.50953e-14)
(0 -0 1.07483e-13)
(0 -0 1.13107e-13)
(0 -0 -7.39362e-15)
(0 -0 -6.2506e-14)
(0 -0 3.29484e-14)
(0 -0 2.83123e-14)
(0 -0 2.4832e-14)
(0 -0 5.86345e-15)
(0 -0 5.84485e-14)
(0 -0 -9.1316e-15)
(0 -0 -8.34534e-15)
(0 -0 -5.13378e-14)
(0 -0 -7.68476e-12)
(0 -0 9.36558e-12)
(0 -0 -2.23272e-12)
(0 -0 3.84403e-13)
(0 -0 -2.11389e-13)
(0 -0 -8.60601e-14)
(0 -0 -1.4125e-13)
(0 -0 -2.39652e-14)
(0 -0 -3.87151e-14)
(0 -0 4.09749e-14)
(0 -0 -5.02793e-15)
(0 -0 -1.69397e-14)
(0 -0 -3.76214e-15)
(0 -0 2.22247e-14)
(0 -0 7.96837e-14)
(0 -0 6.34399e-14)
(0 -0 -1.19166e-14)
(0 -0 -4.65929e-14)
(0 -0 -2.51358e-14)
(0 -0 2.7263e-15)
(0 -0 6.20931e-12)
(0 -0 -7.05343e-12)
(0 -0 1.57498e-12)
(0 -0 -3.90244e-13)
(0 -0 9.03911e-14)
(0 -0 4.60903e-14)
(0 -0 6.84155e-14)
(0 -0 -6.997e-14)
(0 -0 -1.85673e-14)
(0 -0 -1.001e-13)
(0 -0 -2.80432e-14)
(0 -0 5.54745e-15)
(0 -0 2.27034e-14)
(0 -0 4.54004e-15)
(0 -0 3.88348e-14)
(0 -0 6.69099e-15)
(0 -0 3.39601e-15)
(0 -0 3.56298e-14)
(0 -0 3.48349e-14)
(0 -0 3.3982e-14)
(0 -0 -1.01706e-12)
(0 -0 2.95795e-13)
(0 -0 6.8271e-14)
(0 -0 1.1608e-13)
(0 -0 9.05542e-14)
(0 -0 5.123e-14)
(0 -0 -2.83214e-15)
(0 -0 -3.36443e-14)
(0 -0 3.78084e-14)
(0 -0 -4.21379e-14)
(0 -0 9.08976e-14)
(0 -0 8.35806e-14)
(0 -0 -5.91559e-15)
(0 -0 -1.06807e-14)
(0 -0 -1.10216e-13)
(0 -0 -6.76799e-14)
(0 -0 -1.93043e-14)
(0 -0 9.5015e-15)
(0 -0 4.20778e-15)
(0 -0 7.55376e-16)
(0 -0 -4.7992e-12)
(0 -0 7.71277e-12)
(0 -0 -1.69903e-12)
(0 -0 4.30686e-13)
(0 -0 -1.08208e-13)
(0 -0 -6.04443e-14)
(0 -0 5.17054e-14)
(0 -0 4.06015e-14)
(0 -0 -6.36227e-14)
(0 -0 2.29879e-14)
(0 -0 3.46076e-14)
(0 -0 -3.35361e-14)
(0 -0 4.12097e-14)
(0 -0 -3.79207e-14)
(0 -0 -6.989e-14)
(0 -0 -3.59734e-14)
(0 -0 -2.86644e-14)
(0 -0 -6.28175e-14)
(0 -0 -3.22327e-14)
(0 -0 -1.99077e-15)
(0 -0 8.38203e-12)
(0 -0 -1.0734e-11)
(0 -0 2.49681e-12)
(0 -0 -5.31392e-13)
(0 -0 2.15596e-13)
(0 -0 5.52038e-14)
(0 -0 2.79357e-14)
(0 -0 8.81035e-14)
(0 -0 7.21932e-14)
(0 -0 8.53482e-14)
(0 -0 -4.77664e-14)
(0 -0 -2.02512e-14)
(0 -0 -5.19279e-15)
(0 -0 4.54324e-14)
(0 -0 1.32774e-13)
(0 -0 2.53595e-14)
(0 -0 4.12019e-14)
(0 -0 4.73781e-14)
(0 -0 2.65558e-14)
(0 -0 3.21865e-15)
(0 -0 -5.38847e-12)
(0 -0 5.91662e-12)
(0 -0 -1.53624e-12)
(0 -0 1.67689e-13)
(0 -0 -2.00262e-13)
(0 -0 -7.06041e-14)
(0 -0 -9.42476e-14)
(0 -0 -8.12214e-14)
(0 -0 -3.8371e-14)
(0 -0 -7.09078e-14)
(0 -0 -1.0627e-13)
(0 -0 -5.34341e-14)
(0 -0 6.51307e-15)
(0 -0 4.76025e-15)
(0 -0 -6.0593e-14)
(0 -0 -6.12672e-14)
(0 -0 -2.58346e-14)
(0 -0 1.34635e-14)
(0 -0 9.1222e-15)
(0 -0 -1.09557e-14)
(0 -0 -8.92852e-13)
(0 -0 2.64462e-12)
(0 -0 -6.61653e-13)
(0 -0 1.03118e-13)
(0 -0 -1.07775e-13)
(0 -0 -1.12629e-13)
(0 -0 -4.9943e-14)
(0 -0 -5.10086e-14)
(0 -0 -6.34673e-14)
(0 -0 -5.45875e-14)
(0 -0 4.30958e-14)
(0 -0 4.58254e-14)
(0 -0 -1.91158e-14)
(0 -0 -4.1295e-14)
(0 -0 -6.3949e-14)
(0 -0 3.70812e-14)
(0 -0 6.07968e-15)
(0 -0 -1.84759e-17)
(0 -0 -8.08809e-16)
(0 -0 -1.77674e-15)
(0 -0 3.99731e-12)
(0 -0 -8.82557e-12)
(0 -0 2.13253e-12)
(0 -0 -4.11168e-13)
(0 -0 2.1725e-13)
(0 -0 8.67468e-14)
(0 -0 1.13543e-13)
(0 -0 5.035e-14)
(0 -0 5.61201e-14)
(0 -0 5.50955e-14)
(0 -0 8.39368e-14)
(0 -0 3.36411e-14)
(0 -0 7.61347e-14)
(0 -0 8.11635e-14)
(0 -0 1.22886e-13)
(0 -0 8.71265e-14)
(0 -0 -2.86039e-15)
(0 -0 -3.37477e-14)
(0 -0 -8.20619e-15)
(0 -0 2.77264e-14)
(0 -0 -1.86188e-12)
(0 -0 3.24365e-12)
(0 -0 -8.40256e-13)
(0 -0 1.52338e-13)
(0 -0 -1.22016e-13)
(0 -0 1.33451e-14)
(0 -0 -5.6483e-14)
(0 -0 -3.24553e-14)
(0 -0 -2.18748e-14)
(0 -0 1.62704e-15)
(0 -0 -5.1803e-14)
(0 -0 1.21877e-14)
(0 -0 -4.85933e-14)
(0 -0 -5.17231e-15)
(0 -0 -6.96175e-14)
(0 -0 -5.83749e-14)
(0 -0 4.46667e-14)
(0 -0 3.53692e-14)
(0 -0 -1.00205e-14)
(0 -0 -2.64885e-14)
(0 -0 -5.24941e-12)
(0 -0 7.7533e-12)
(0 -0 -1.62885e-12)
(0 -0 4.36537e-13)
(0 -0 -7.0659e-14)
(0 -0 1.95236e-14)
(0 -0 4.58694e-16)
(0 -0 3.03805e-14)
(0 -0 2.62363e-14)
(0 -0 -8.71719e-15)
(0 -0 -5.50178e-15)
(0 -0 8.84606e-15)
(0 -0 1.37555e-14)
(0 -0 -5.46616e-14)
(0 -0 -1.10546e-14)
(0 -0 2.47182e-15)
(0 -0 1.19197e-14)
(0 -0 3.53543e-15)
(0 -0 -4.18984e-15)
(0 -0 2.71245e-14)
)
;

boundaryField
{
    movingWall
    {
        type            calculated;
        value           nonuniform List<vector> 
20
(
(0 -0 -1.15439e-11)
(0 -0 9.73899e-12)
(0 -0 -1.51522e-12)
(0 -0 6.31477e-13)
(0 -0 1.24281e-13)
(0 -0 2.41568e-13)
(0 -0 1.33685e-13)
(0 -0 1.36502e-13)
(0 -0 1.32358e-13)
(0 -0 8.01007e-14)
(0 -0 1.72134e-13)
(0 -0 8.84606e-15)
(0 -0 1.02573e-13)
(0 -0 4.39575e-14)
(0 -0 7.77632e-14)
(0 -0 9.12897e-14)
(0 -0 -7.68981e-14)
(0 -0 3.53543e-15)
(0 -0 -4.18984e-15)
(0 -0 8.88373e-14)
)
;
    }
    fixedWalls
    {
        type            calculated;
        value           nonuniform List<vector> 
60
(
(0 -0 5.03888e-11)
(0 -0 6.57638e-12)
(0 -0 -4.59951e-11)
(0 -0 3.11438e-11)
(0 -0 3.5416e-13)
(0 -0 -3.47277e-11)
(0 -0 4.74315e-11)
(0 -0 -1.63425e-11)
(0 -0 -2.19424e-11)
(0 -0 3.95188e-11)
(0 -0 -4.07064e-11)
(0 -0 3.01224e-11)
(0 -0 -6.65546e-13)
(0 -0 -3.26423e-11)
(0 -0 4.62127e-11)
(0 -0 -2.62056e-11)
(0 -0 -1.15799e-11)
(0 -0 3.81118e-11)
(0 -0 -1.41403e-11)
(0 -0 -3.25407e-11)
(0 -0 3.44099e-14)
(0 -0 4.52014e-14)
(0 -0 2.97467e-14)
(0 -0 3.71088e-14)
(0 -0 1.41606e-14)
(0 -0 1.07453e-14)
(0 -0 1.10324e-14)
(0 -0 -5.49665e-15)
(0 -0 -5.77194e-15)
(0 -0 -4.60177e-14)
(0 -0 -1.29855e-14)
(0 -0 7.67126e-15)
(0 -0 -3.02383e-15)
(0 -0 1.41141e-14)
(0 -0 3.92236e-15)
(0 -0 -1.76988e-14)
(0 -0 -1.53237e-15)
(0 -0 3.39004e-14)
(0 -0 -1.0128e-14)
(0 -0 3.44972e-14)
(0 -0 1.62901e-11)
(0 -0 -1.42553e-11)
(0 -0 2.61186e-12)
(0 -0 -8.45182e-13)
(0 -0 -6.83691e-14)
(0 -0 -2.42539e-13)
(0 -0 -1.82288e-13)
(0 -0 -1.03614e-13)
(0 -0 -5.23221e-14)
(0 -0 -4.2514e-14)
(0 -0 -1.69201e-13)
(0 -0 4.86386e-16)
(0 -0 -9.11426e-14)
(0 -0 -4.30166e-14)
(0 -0 5.88799e-15)
(0 -0 7.55991e-15)
(0 -0 8.38053e-14)
(0 -0 -1.6883e-14)
(0 -0 -1.37788e-14)
(0 -0 1.01885e-13)
)
;
    }
    frontAndBack
    {
        type            empty;
    }
}


// ************************************************************************* //
