/*--------------------------------*- C++ -*----------------------------------*\
| =========                 |                                                 |
| \\      /  F ield         | OpenFOAM: The Open Source CFD Toolbox           |
|  \\    /   O peration     | Version:  2506                                  |
|   \\  /    A nd           | Website:  www.openfoam.com                      |
|    \\/     M anipulation  |                                                 |
\*---------------------------------------------------------------------------*/
FoamFile
{
    version     2.0;
    format      ascii;
    arch        "LSB;label=32;scalar=64";
    class       volVectorField;
    location    "6.5";
    object      wallShearStress;
}
// * * * * * * * * * * * * * * * * * * * * * * * * * * * * * * * * * * * * * //

dimensions      [0 2 -2 0 0 0 0];

internalField   uniform (0 0 0);

boundaryField
{
    movingWall
    {
        type            calculated;
        value           uniform (0 0 0);
    }
    fixedWalls
    {
        type            calculated;
        value           nonuniform List<vector> 
60
(
(1.80594e-16 -5.22319e-16 0)
(-3.01396e-16 -8.04005e-17 0)
(8.82313e-17 5.53192e-16 0)
(2.04065e-16 -3.81911e-16 0)
(-2.64427e-16 -2.52256e-17 0)
(1.38668e-16 3.98776e-16 0)
(2.61067e-17 -5.07925e-16 0)
(-1.4948e-16 1.76978e-16 0)
(1.25283e-16 2.29724e-16 0)
(-3.38725e-17 -4.12535e-16 0)
(-3.54571e-17 4.13027e-16 0)
(8.19298e-17 -2.94177e-16 0)
(-1.07228e-16 -1.34023e-17 0)
(3.88699e-17 3.64912e-16 0)
(1.17371e-16 -4.80016e-16 0)
(-1.88337e-16 2.57177e-16 0)
(2.04019e-16 1.50493e-16 0)
(2.79245e-19 -4.67855e-16 0)
(-2.67071e-16 1.64171e-16 0)
(1.47181e-16 3.53596e-16 0)
(1.31692e-18 3.44099e-19 0)
(-5.99891e-19 4.52014e-19 0)
(-1.34876e-20 2.97467e-19 0)
(1.91983e-20 3.71088e-19 0)
(-6.36058e-19 6.83707e-19 0)
(-6.87683e-19 1.07453e-19 0)
(-2.707e-20 -4.31777e-19 0)
(1.71679e-20 -5.49665e-20 0)
(2.28151e-20 -5.77194e-20 0)
(-6.04142e-19 6.24025e-19 0)
(-2.45969e-18 -1.29855e-19 0)
(1.66028e-20 -1.00749e-18 0)
(1.3305e-18 -3.02383e-20 0)
(1.1577e-20 6.83242e-19 0)
(-1.28243e-18 3.92236e-20 0)
(-9.09121e-21 -1.76988e-19 0)
(-5.51295e-19 -1.53237e-20 0)
(3.0849e-20 -2.03097e-19 0)
(9.9467e-22 4.40821e-19 0)
(-1.22485e-18 -1.97129e-19 0)
(-3.85556e-17 -6.91005e-16 0)
(1.00809e-16 1.57402e-16 0)
(-2.61186e-17 -3.84265e-17 0)
(4.01092e-18 7.98379e-18 0)
(-3.7572e-18 -1.93997e-18 0)
(-2.0155e-18 -7.54333e-19 0)
(-1.72984e-18 -1.02764e-18 0)
(-7.40221e-19 -3.25531e-19 0)
(-3.64958e-19 -2.38533e-19 0)
(-4.63038e-19 2.77204e-19 0)
(-1.86071e-18 -1.58894e-19 0)
(-4.86386e-21 -5.34068e-19 0)
(-8.6493e-19 -1.84835e-19 0)
(-4.58013e-19 -4.10079e-19 0)
(-5.88799e-20 -2.59094e-19 0)
(-7.55991e-20 -5.43405e-19 0)
(9.38304e-19 -1.02369e-18 0)
(1.6883e-19 8.53318e-20 0)
(1.37788e-19 -1.23262e-19 0)
(7.57503e-19 8.20199e-19 0)
)
;
    }
    frontAndBack
    {
        type            empty;
    }
}


// ************************************************************************* //
