/*--------------------------------*- C++ -*----------------------------------*\
| =========                 |                                                 |
| \\      /  F ield         | OpenFOAM: The Open Source CFD Toolbox           |
|  \\    /   O peration     | Version:  2506                                  |
|   \\  /    A nd           | Website:  www.openfoam.com                      |
|    \\/     M anipulation  |                                                 |
\*---------------------------------------------------------------------------*/
FoamFile
{
    version     2.0;
    format      ascii;
    arch        "LSB;label=32;scalar=64";
    class       volScalarField;
    location    "6.5";
    object      yPlus;
}
// * * * * * * * * * * * * * * * * * * * * * * * * * * * * * * * * * * * * * //

dimensions      [0 0 0 0 0 0 0];

internalField   uniform 0;

boundaryField
{
    movingWall
    {
        type            calculated;
        value           nonuniform List<scalar> 
20
(
4.63005e-06
2.16605e-06
1.04834e-06
5.17045e-07
3.92362e-07
3.73748e-07
2.91812e-07
2.90803e-07
2.89522e-07
2.40913e-07
3.39686e-07
1.75205e-07
2.3725e-07
1.67332e-07
2.37667e-07
2.45877e-07
2.35955e-07
7.65149e-08
6.76131e-08
2.36015e-07
)
;
    }
    fixedWalls
    {
        type            calculated;
        value           nonuniform List<scalar> 
60
(
5.68362e-06
2.76949e-06
5.63238e-06
4.72792e-06
2.61376e-06
4.84549e-06
5.5405e-06
3.27587e-06
3.75557e-06
5.02412e-06
5.06373e-06
4.31466e-06
4.59171e-07
4.65636e-06
5.46218e-06
4.0912e-06
3.0545e-06
5.15082e-06
3.40292e-06
4.63005e-06
2.43991e-07
1.99008e-07
1.36351e-07
1.52292e-07
1.9465e-07
1.68987e-07
1.00227e-07
5.86123e-08
6.00622e-08
1.68e-07
3.33644e-07
1.70548e-07
2.35676e-07
1.60505e-07
2.35723e-07
1.05175e-07
1.6665e-07
6.51696e-08
1.03008e-07
2.36015e-07
5.68362e-06
2.64753e-06
1.28405e-06
6.19116e-07
4.0733e-07
3.75977e-07
3.43376e-07
2.39938e-07
1.66996e-07
1.67696e-07
3.33574e-07
1.28702e-07
2.3703e-07
1.72527e-07
1.10205e-07
1.596e-07
2.52195e-07
1.13757e-07
1.05654e-07
2.43991e-07
)
;
    }
    frontAndBack
    {
        type            empty;
    }
}


// ************************************************************************* //
