/*--------------------------------*- C++ -*----------------------------------*\
| =========                 |                                                 |
| \\      /  F ield         | OpenFOAM: The Open Source CFD Toolbox           |
|  \\    /   O peration     | Version:  2506                                  |
|   \\  /    A nd           | Website:  www.openfoam.com                      |
|    \\/     M anipulation  |                                                 |
\*---------------------------------------------------------------------------*/
FoamFile
{
    version     2.0;
    format      ascii;
    arch        "LSB;label=32;scalar=64";
    class       volVectorField;
    location    "6.5";
    object      zeroGradient(U);
}
// * * * * * * * * * * * * * * * * * * * * * * * * * * * * * * * * * * * * * //

dimensions      [0 1 -1 0 0 0 0];

internalField   nonuniform List<vector> 
400
(
(-1 1.28276e-13 0)
(-1 -2.75478e-14 0)
(-1 6.59511e-15 0)
(-1 -1.4292e-15 0)
(-1 3.63745e-16 0)
(-1 1.07556e-16 0)
(-1 1.58801e-16 0)
(-1 6.10371e-17 0)
(-1 1.08436e-17 0)
(-1 -1.80944e-17 0)
(-1 2.97926e-17 0)
(-1 6.62564e-17 0)
(-1 3.46565e-17 0)
(-1 4.30084e-17 0)
(-1 4.85802e-17 0)
(-1 1.01888e-16 0)
(-1 1.24179e-16 0)
(-1 5.17629e-17 0)
(-1 -4.4651e-17 0)
(-1 -8.60247e-17 0)
(-1 1.82705e-14 0)
(-1 -3.8651e-15 0)
(-1 9.84724e-16 0)
(-1 -3.39631e-16 0)
(-1 3.11899e-18 0)
(-1 9.92076e-17 0)
(-1 1.53004e-16 0)
(-1 4.06656e-17 0)
(-1 1.726e-17 0)
(-1 2.53662e-18 0)
(-1 -2.08195e-18 0)
(-1 3.09384e-17 0)
(-1 1.96532e-17 0)
(-1 6.77522e-17 0)
(-1 2.1007e-17 0)
(-1 -1.32175e-17 0)
(-1 1.92785e-17 0)
(-1 -1.45384e-17 0)
(-1 -1.01481e-16 0)
(-1 -1.13003e-16 0)
(-1 -1.26643e-13 0)
(-1 2.70838e-14 0)
(-1 -6.72983e-15 0)
(-1 1.16368e-15 0)
(-1 -5.4553e-16 0)
(-1 -1.13106e-17 0)
(-1 2.52221e-17 0)
(-1 7.26731e-17 0)
(-1 1.4151e-16 0)
(-1 2.24203e-16 0)
(-1 1.33552e-16 0)
(-1 1.76994e-16 0)
(-1 8.65028e-17 0)
(-1 -4.10397e-17 0)
(-1 -1.3296e-16 0)
(-1 -6.04937e-17 0)
(-1 3.64919e-17 0)
(-1 -4.12542e-17 0)
(-1 -1.29222e-16 0)
(-1 -7.43668e-17 0)
(-1 8.66686e-14 0)
(-1 -1.9575e-14 0)
(-1 4.25679e-15 0)
(-1 -1.1842e-15 0)
(-1 6.07737e-17 0)
(-1 -1.92963e-16 0)
(-1 -1.40079e-16 0)
(-1 -1.16832e-16 0)
(-1 -4.13688e-17 0)
(-1 4.35992e-17 0)
(-1 3.28631e-17 0)
(-1 5.0027e-17 0)
(-1 -6.70576e-20 0)
(-1 -5.50324e-17 0)
(-1 1.73106e-17 0)
(-1 4.17839e-17 0)
(-1 5.71554e-17 0)
(-1 -2.44627e-17 0)
(-1 -1.0201e-16 0)
(-1 -9.2772e-17 0)
(-1 3.5959e-15 0)
(-1 -1.26773e-15 0)
(-1 1.14924e-16 0)
(-1 -8.82013e-17 0)
(-1 9.48847e-18 0)
(-1 -1.79762e-16 0)
(-1 -2.25992e-16 0)
(-1 -2.53983e-16 0)
(-1 -2.05523e-16 0)
(-1 -1.6082e-16 0)
(-1 -6.60523e-17 0)
(-1 -8.41334e-17 0)
(-1 5.73279e-17 0)
(-1 1.64011e-16 0)
(-1 1.41049e-16 0)
(-1 -9.00206e-17 0)
(-1 -2.03832e-16 0)
(-1 -8.27694e-17 0)
(-1 -7.31189e-17 0)
(-1 -1.03164e-16 0)
(-1 -9.32566e-14 0)
(-1 2.07407e-14 0)
(-1 -4.67651e-15 0)
(-1 1.12166e-15 0)
(-1 -3.41124e-16 0)
(-1 -1.45907e-16 0)
(-1 -2.13647e-16 0)
(-1 -1.72924e-16 0)
(-1 -4.19463e-17 0)
(-1 3.08893e-17 0)
(-1 4.1138e-17 0)
(-1 3.36232e-17 0)
(-1 7.40512e-17 0)
(-1 5.86012e-17 0)
(-1 -6.52042e-17 0)
(-1 -1.10754e-16 0)
(-1 -1.01721e-16 0)
(-1 -3.94787e-17 0)
(-1 2.02439e-17 0)
(-1 -2.68633e-17 0)
(-1 1.2278e-13 0)
(-1 -2.63402e-14 0)
(-1 6.06156e-15 0)
(-1 -1.52329e-15 0)
(-1 1.61446e-16 0)
(-1 -1.06779e-16 0)
(-1 -5.75707e-17 0)
(-1 -7.23989e-17 0)
(-1 3.0163e-17 0)
(-1 1.00565e-16 0)
(-1 1.25612e-16 0)
(-1 6.61958e-17 0)
(-1 2.64198e-17 0)
(-1 7.83321e-18 0)
(-1 -7.84755e-18 0)
(-1 -9.45829e-17 0)
(-1 -4.20307e-17 0)
(-1 3.63218e-17 0)
(-1 1.13958e-16 0)
(-1 4.01817e-17 0)
(-1 -4.25503e-14 0)
(-1 9.21722e-15 0)
(-1 -2.32226e-15 0)
(-1 3.52507e-16 0)
(-1 -1.92715e-16 0)
(-1 -1.00089e-16 0)
(-1 -1.34375e-16 0)
(-1 -7.46445e-17 0)
(-1 -6.49202e-17 0)
(-1 4.19337e-17 0)
(-1 2.01762e-16 0)
(-1 1.63199e-16 0)
(-1 -1.07807e-17 0)
(-1 -5.16153e-17 0)
(-1 3.99553e-17 0)
(-1 8.06319e-17 0)
(-1 -2.3193e-17 0)
(-1 -6.00045e-17 0)
(-1 -1.60583e-17 0)
(-1 1.37416e-17 0)
(-1 -5.61436e-14 0)
(-1 1.18556e-14 0)
(-1 -3.00537e-15 0)
(-1 3.5792e-16 0)
(-1 -4.4035e-16 0)
(-1 -1.52733e-16 0)
(-1 -1.22762e-17 0)
(-1 1.05797e-16 0)
(-1 1.37998e-17 0)
(-1 -3.97109e-17 0)
(-1 -2.37547e-17 0)
(-1 1.18853e-18 0)
(-1 -8.70363e-17 0)
(-1 -1.55254e-16 0)
(-1 -1.13179e-16 0)
(-1 8.95382e-17 0)
(-1 9.29452e-18 0)
(-1 -5.53588e-17 0)
(-1 4.2764e-18 0)
(-1 1.44299e-17 0)
(-1 1.00965e-13 0)
(-1 -2.26813e-14 0)
(-1 4.86159e-15 0)
(-1 -1.42523e-15 0)
(-1 8.92887e-17 0)
(-1 -6.91518e-17 0)
(-1 1.10661e-16 0)
(-1 6.8198e-17 0)
(-1 4.84631e-17 0)
(-1 5.88213e-17 0)
(-1 9.53271e-17 0)
(-1 -1.51149e-17 0)
(-1 1.23678e-17 0)
(-1 4.33183e-17 0)
(-1 2.444e-17 0)
(-1 2.0588e-17 0)
(-1 8.30744e-17 0)
(-1 6.29723e-17 0)
(-1 -8.24156e-18 0)
(-1 -2.04811e-17 0)
(-1 -1.02511e-13 0)
(-1 2.26822e-14 0)
(-1 -5.33193e-15 0)
(-1 1.16813e-15 0)
(-1 -4.03694e-16 0)
(-1 -1.326e-16 0)
(-1 -1.80093e-16 0)
(-1 -1.89848e-16 0)
(-1 -1.48694e-16 0)
(-1 -3.48982e-17 0)
(-1 -9.99649e-18 0)
(-1 -8.51776e-17 0)
(-1 -1.79393e-16 0)
(-1 -1.22799e-16 0)
(-1 4.28541e-17 0)
(-1 1.31937e-16 0)
(-1 1.35152e-16 0)
(-1 1.27709e-17 0)
(-1 -5.97267e-17 0)
(-1 3.24637e-17 0)
(-1 7.44252e-14 0)
(-1 -1.58558e-14 0)
(-1 3.61988e-15 0)
(-1 -9.19102e-16 0)
(-1 -1.15011e-17 0)
(-1 -1.51915e-17 0)
(-1 1.78351e-16 0)
(-1 1.26863e-16 0)
(-1 2.07519e-17 0)
(-1 -5.88102e-17 0)
(-1 -1.67099e-16 0)
(-1 -6.8192e-17 0)
(-1 -1.11624e-16 0)
(-1 -1.12209e-16 0)
(-1 -6.62237e-17 0)
(-1 5.08815e-18 0)
(-1 6.86209e-19 0)
(-1 3.90483e-17 0)
(-1 8.59335e-17 0)
(-1 1.16347e-16 0)
(-1 8.43354e-16 0)
(-1 -9.85052e-16 0)
(-1 2.77651e-16 0)
(-1 -3.12917e-17 0)
(-1 8.31934e-17 0)
(-1 6.10991e-17 0)
(-1 5.33928e-17 0)
(-1 3.27778e-17 0)
(-1 -1.19993e-17 0)
(-1 -1.3124e-16 0)
(-1 -1.62328e-16 0)
(-1 -3.54154e-17 0)
(-1 1.31377e-16 0)
(-1 1.76479e-16 0)
(-1 2.45696e-17 0)
(-1 -1.12526e-16 0)
(-1 -1.10128e-16 0)
(-1 -3.45182e-17 0)
(-1 -1.51133e-17 0)
(-1 7.55957e-18 0)
(-1 -8.64168e-14 0)
(-1 1.91803e-14 0)
(-1 -4.41023e-15 0)
(-1 1.1058e-15 0)
(-1 -1.03372e-16 0)
(-1 2.37223e-17 0)
(-1 -1.65713e-16 0)
(-1 -1.32515e-18 0)
(-1 -3.0749e-17 0)
(-1 -9.54508e-17 0)
(-1 -7.1921e-17 0)
(-1 -2.04254e-17 0)
(-1 1.34819e-16 0)
(-1 1.20621e-16 0)
(-1 2.66626e-17 0)
(-1 -3.61778e-17 0)
(-1 -6.20212e-17 0)
(-1 -5.17714e-17 0)
(-1 -1.48095e-16 0)
(-1 -1.03048e-16 0)
(-1 1.17768e-13 0)
(-1 -2.5003e-14 0)
(-1 5.8205e-15 0)
(-1 -1.39018e-15 0)
(-1 2.35534e-16 0)
(-1 -4.73683e-17 0)
(-1 -2.55793e-17 0)
(-1 -3.90616e-17 0)
(-1 4.23039e-17 0)
(-1 1.4077e-16 0)
(-1 8.2634e-17 0)
(-1 -6.58438e-17 0)
(-1 -1.19878e-16 0)
(-1 -1.17772e-16 0)
(-1 6.33953e-17 0)
(-1 1.25769e-16 0)
(-1 4.59395e-17 0)
(-1 -4.31285e-18 0)
(-1 -2.23806e-17 0)
(-1 -9.80589e-18 0)
(-1 -6.49041e-14 0)
(-1 1.34588e-14 0)
(-1 -3.29838e-15 0)
(-1 5.35815e-16 0)
(-1 -2.66238e-16 0)
(-1 -1.11554e-16 0)
(-1 -1.59127e-16 0)
(-1 -2.40878e-16 0)
(-1 -1.5819e-16 0)
(-1 -8.24874e-17 0)
(-1 -5.41169e-17 0)
(-1 -6.09814e-17 0)
(-1 -4.63565e-17 0)
(-1 4.14937e-18 0)
(-1 1.2459e-18 0)
(-1 -5.96792e-17 0)
(-1 -6.93252e-17 0)
(-1 -4.69749e-17 0)
(-1 6.53095e-17 0)
(-1 4.42471e-17 0)
(-1 -3.32865e-14 0)
(-1 7.0108e-15 0)
(-1 -1.69038e-15 0)
(-1 3.94263e-16 0)
(-1 -1.17093e-16 0)
(-1 -1.41388e-16 0)
(-1 -1.59185e-16 0)
(-1 -9.87175e-17 0)
(-1 -1.2717e-16 0)
(-1 -1.91289e-16 0)
(-1 -1.30944e-16 0)
(-1 -3.13819e-17 0)
(-1 5.62592e-17 0)
(-1 4.85111e-17 0)
(-1 -8.56401e-17 0)
(-1 -4.88778e-17 0)
(-1 1.41213e-17 0)
(-1 1.1919e-17 0)
(-1 1.39365e-17 0)
(-1 3.83092e-18 0)
(-1 1.06122e-13 0)
(-1 -2.27804e-14 0)
(-1 5.39761e-15 0)
(-1 -1.18402e-15 0)
(-1 2.01725e-16 0)
(-1 -9.57209e-17 0)
(-1 -1.50095e-17 0)
(-1 -4.44915e-17 0)
(-1 -5.36104e-17 0)
(-1 -2.53914e-17 0)
(-1 -4.47561e-17 0)
(-1 8.24995e-19 0)
(-1 2.06048e-17 0)
(-1 -5.098e-17 0)
(-1 1.90878e-17 0)
(-1 9.36775e-17 0)
(-1 7.72016e-17 0)
(-1 6.50736e-17 0)
(-1 1.07753e-17 0)
(-1 -1.69883e-17 0)
(-1 -3.81968e-14 0)
(-1 8.19387e-15 0)
(-1 -1.96552e-15 0)
(-1 3.33411e-16 0)
(-1 -1.71091e-16 0)
(-1 -7.35925e-17 0)
(-1 -3.76396e-17 0)
(-1 -9.63216e-17 0)
(-1 -9.11424e-17 0)
(-1 -4.40194e-17 0)
(-1 -7.4872e-17 0)
(-1 -1.99486e-17 0)
(-1 4.70053e-17 0)
(-1 3.6219e-17 0)
(-1 -4.71778e-18 0)
(-1 -1.17854e-16 0)
(-1 -4.63652e-17 0)
(-1 5.77623e-17 0)
(-1 3.62767e-17 0)
(-1 -4.24426e-17 0)
(-1 -8.48754e-14 0)
(-1 1.82867e-14 0)
(-1 -4.36087e-15 0)
(-1 9.13971e-16 0)
(-1 -2.66551e-16 0)
(-1 -6.36688e-17 0)
(-1 -7.1315e-17 0)
(-1 -5.90819e-17 0)
(-1 -3.85605e-17 0)
(-1 -6.77699e-17 0)
(-1 -1.25732e-16 0)
(-1 -1.22788e-16 0)
(-1 -3.72718e-17 0)
(-1 1.4767e-17 0)
(-1 -4.17864e-17 0)
(-1 -9.57789e-17 0)
(-1 -1.70682e-17 0)
(-1 2.34181e-17 0)
(-1 1.82861e-17 0)
(-1 -1.84803e-17 0)
)
;

boundaryField
{
    movingWall
    {
        type            zeroGradient;
    }
    fixedWalls
    {
        type            zeroGradient;
    }
    frontAndBack
    {
        type            empty;
    }
}


// ************************************************************************* //
