/*--------------------------------*- C++ -*----------------------------------*\
| =========                 |                                                 |
| \\      /  F ield         | OpenFOAM: The Open Source CFD Toolbox           |
|  \\    /   O peration     | Version:  2506                                  |
|   \\  /    A nd           | Website:  www.openfoam.com                      |
|    \\/     M anipulation  |                                                 |
\*---------------------------------------------------------------------------*/
FoamFile
{
    version     2.0;
    format      ascii;
    arch        "LSB;label=32;scalar=64";
    class       volVectorField;
    location    "4.375";
    object      diffU;
}
// * * * * * * * * * * * * * * * * * * * * * * * * * * * * * * * * * * * * * //

dimensions      [0 1 -1 0 0 0 0];

internalField   nonuniform List<vector> 
400
(
(0 0 0)
(5.22721e-11 -2.41687e-08 0)
(2.42557e-11 -1.84291e-08 0)
(3.58571e-11 -1.97927e-08 0)
(3.12488e-11 -1.9469e-08 0)
(3.25652e-11 -1.9546e-08 0)
(3.20137e-11 -1.95277e-08 0)
(3.21184e-11 -1.95321e-08 0)
(3.20463e-11 -1.9531e-08 0)
(3.2043e-11 -1.95313e-08 0)
(3.20268e-11 -1.95312e-08 0)
(3.20198e-11 -1.95312e-08 0)
(3.20134e-11 -1.95312e-08 0)
(3.20093e-11 -1.95312e-08 0)
(3.20062e-11 -1.95312e-08 0)
(3.20042e-11 -1.95312e-08 0)
(3.20024e-11 -1.95312e-08 0)
(3.20015e-11 -1.95312e-08 0)
(3.20007e-11 -1.95312e-08 0)
(3.20005e-11 -1.95312e-08 0)
(8.18388e-11 -3.90556e-08 0)
(2.14366e-11 -1.48919e-08 0)
(3.57885e-11 -2.06306e-08 0)
(3.13838e-11 -1.92697e-08 0)
(3.23599e-11 -1.9593e-08 0)
(3.20772e-11 -1.95164e-08 0)
(3.2102e-11 -1.95347e-08 0)
(3.2064e-11 -1.95304e-08 0)
(3.2047e-11 -1.95314e-08 0)
(3.20333e-11 -1.95312e-08 0)
(3.20236e-11 -1.95312e-08 0)
(3.20169e-11 -1.95312e-08 0)
(3.20118e-11 -1.95312e-08 0)
(3.20083e-11 -1.95312e-08 0)
(3.20056e-11 -1.95312e-08 0)
(3.20036e-11 -1.95312e-08 0)
(3.2002e-11 -1.95312e-08 0)
(3.20012e-11 -1.95312e-08 0)
(3.20007e-11 -1.95312e-08 0)
(3.20004e-11 -1.95312e-08 0)
(-7.66482e-11 -5.18791e-11 0)
(5.31848e-11 -2.41552e-08 0)
(2.33578e-11 -1.84335e-08 0)
(3.37305e-11 -1.97913e-08 0)
(3.14875e-11 -1.94692e-08 0)
(3.21968e-11 -1.95458e-08 0)
(3.20097e-11 -1.95277e-08 0)
(3.20518e-11 -1.9532e-08 0)
(3.20288e-11 -1.9531e-08 0)
(3.20248e-11 -1.95313e-08 0)
(3.20178e-11 -1.95312e-08 0)
(3.20136e-11 -1.95312e-08 0)
(3.20097e-11 -1.95312e-08 0)
(3.20068e-11 -1.95312e-08 0)
(3.20047e-11 -1.95312e-08 0)
(3.20032e-11 -1.95312e-08 0)
(3.20016e-11 -1.95312e-08 0)
(3.2001e-11 -1.95312e-08 0)
(3.20008e-11 -1.95312e-08 0)
(3.20004e-11 -1.95312e-08 0)
(1.39097e-10 -3.89645e-08 0)
(1.1299e-11 -1.4921e-08 0)
(3.999e-11 -2.06247e-08 0)
(3.02325e-11 -1.92716e-08 0)
(3.24434e-11 -1.95926e-08 0)
(3.18618e-11 -1.95165e-08 0)
(3.20436e-11 -1.95346e-08 0)
(3.20076e-11 -1.95304e-08 0)
(3.20192e-11 -1.95314e-08 0)
(3.20141e-11 -1.95312e-08 0)
(3.20119e-11 -1.95312e-08 0)
(3.2009e-11 -1.95312e-08 0)
(3.20068e-11 -1.95312e-08 0)
(3.20051e-11 -1.95312e-08 0)
(3.20036e-11 -1.95312e-08 0)
(3.20026e-11 -1.95312e-08 0)
(3.20018e-11 -1.95312e-08 0)
(3.2001e-11 -1.95312e-08 0)
(3.20007e-11 -1.95312e-08 0)
(3.20004e-11 -1.95312e-08 0)
(-6.79767e-11 -1.53844e-10 0)
(5.05551e-11 -2.41265e-08 0)
(2.44256e-11 -1.84411e-08 0)
(3.3424e-11 -1.97896e-08 0)
(3.15143e-11 -1.94698e-08 0)
(3.20938e-11 -1.95457e-08 0)
(3.196e-11 -1.95277e-08 0)
(3.20064e-11 -1.9532e-08 0)
(3.20006e-11 -1.9531e-08 0)
(3.20048e-11 -1.95313e-08 0)
(3.20046e-11 -1.95312e-08 0)
(3.20045e-11 -1.95312e-08 0)
(3.20038e-11 -1.95312e-08 0)
(3.20031e-11 -1.95312e-08 0)
(3.20022e-11 -1.95312e-08 0)
(3.20016e-11 -1.95312e-08 0)
(3.20008e-11 -1.95312e-08 0)
(3.20006e-11 -1.95312e-08 0)
(3.20004e-11 -1.95312e-08 0)
(3.20004e-11 -1.95312e-08 0)
(1.0715e-10 -3.88607e-08 0)
(1.84368e-11 -1.49479e-08 0)
(3.72227e-11 -2.06183e-08 0)
(3.08569e-11 -1.92734e-08 0)
(3.22186e-11 -1.95923e-08 0)
(3.18783e-11 -1.95167e-08 0)
(3.19926e-11 -1.95346e-08 0)
(3.19811e-11 -1.95304e-08 0)
(3.19942e-11 -1.95314e-08 0)
(3.19964e-11 -1.95312e-08 0)
(3.19993e-11 -1.95312e-08 0)
(3.20002e-11 -1.95312e-08 0)
(3.2001e-11 -1.95312e-08 0)
(3.20011e-11 -1.95312e-08 0)
(3.20008e-11 -1.95312e-08 0)
(3.2001e-11 -1.95312e-08 0)
(3.2001e-11 -1.95312e-08 0)
(3.20007e-11 -1.95312e-08 0)
(3.20006e-11 -1.95312e-08 0)
(3.20007e-11 -1.95312e-08 0)
(-2.34781e-11 -2.48394e-10 0)
(4.134e-11 -2.41035e-08 0)
(2.81579e-11 -1.84467e-08 0)
(3.26107e-11 -1.97884e-08 0)
(3.17519e-11 -1.94702e-08 0)
(3.20026e-11 -1.95457e-08 0)
(3.19571e-11 -1.95278e-08 0)
(3.19809e-11 -1.9532e-08 0)
(3.19851e-11 -1.9531e-08 0)
(3.19915e-11 -1.95313e-08 0)
(3.19944e-11 -1.95312e-08 0)
(3.19968e-11 -1.95312e-08 0)
(3.19984e-11 -1.95312e-08 0)
(3.19988e-11 -1.95312e-08 0)
(3.2e-11 -1.95312e-08 0)
(3.2e-11 -1.95312e-08 0)
(3.2e-11 -1.95312e-08 0)
(3.20004e-11 -1.95312e-08 0)
(3.20002e-11 -1.95312e-08 0)
(3.20002e-11 -1.95312e-08 0)
(6.50475e-11 -3.87771e-08 0)
(2.70302e-11 -1.49674e-08 0)
(3.38694e-11 -2.06137e-08 0)
(3.1622e-11 -1.92745e-08 0)
(3.19997e-11 -1.95921e-08 0)
(3.19345e-11 -1.95168e-08 0)
(3.19649e-11 -1.95346e-08 0)
(3.19731e-11 -1.95304e-08 0)
(3.19811e-11 -1.95314e-08 0)
(3.19869e-11 -1.95312e-08 0)
(3.19909e-11 -1.95312e-08 0)
(3.1994e-11 -1.95312e-08 0)
(3.1996e-11 -1.95312e-08 0)
(3.19975e-11 -1.95312e-08 0)
(3.19982e-11 -1.95312e-08 0)
(3.19993e-11 -1.95312e-08 0)
(3.19997e-11 -1.95312e-08 0)
(3.20002e-11 -1.95312e-08 0)
(3.20004e-11 -1.95312e-08 0)
(3.20005e-11 -1.95312e-08 0)
(1.2643e-11 -3.1886e-10 0)
(3.41235e-11 -2.40876e-08 0)
(3.09932e-11 -1.84505e-08 0)
(3.19911e-11 -1.97875e-08 0)
(3.19358e-11 -1.94704e-08 0)
(3.19464e-11 -1.95456e-08 0)
(3.19642e-11 -1.95278e-08 0)
(3.19689e-11 -1.9532e-08 0)
(3.19786e-11 -1.9531e-08 0)
(3.19835e-11 -1.95313e-08 0)
(3.19886e-11 -1.95312e-08 0)
(3.1992e-11 -1.95312e-08 0)
(3.19946e-11 -1.95312e-08 0)
(3.19964e-11 -1.95312e-08 0)
(3.1998e-11 -1.95312e-08 0)
(3.19991e-11 -1.95312e-08 0)
(3.19995e-11 -1.95312e-08 0)
(3.2e-11 -1.95312e-08 0)
(3.20002e-11 -1.95312e-08 0)
(3.20004e-11 -1.95312e-08 0)
(3.81589e-11 -3.87169e-08 0)
(3.24035e-11 -1.49809e-08 0)
(3.18627e-11 -2.06105e-08 0)
(3.20993e-11 -1.92752e-08 0)
(3.18754e-11 -1.95919e-08 0)
(3.19735e-11 -1.95168e-08 0)
(3.19524e-11 -1.95346e-08 0)
(3.19726e-11 -1.95304e-08 0)
(3.19758e-11 -1.95314e-08 0)
(3.19831e-11 -1.95312e-08 0)
(3.19873e-11 -1.95312e-08 0)
(3.19911e-11 -1.95312e-08 0)
(3.19942e-11 -1.95312e-08 0)
(3.19962e-11 -1.95312e-08 0)
(3.19977e-11 -1.95312e-08 0)
(3.19984e-11 -1.95312e-08 0)
(3.19991e-11 -1.95312e-08 0)
(3.2e-11 -1.95312e-08 0)
(3.2e-11 -1.95312e-08 0)
(3.20004e-11 -1.95312e-08 0)
(3.23148e-11 -3.7011e-10 0)
(3.01534e-11 -2.40761e-08 0)
(3.24551e-11 -1.84532e-08 0)
(3.16454e-11 -1.97869e-08 0)
(3.20378e-11 -1.94706e-08 0)
(3.19196e-11 -1.95456e-08 0)
(3.19726e-11 -1.95278e-08 0)
(3.19662e-11 -1.9532e-08 0)
(3.19782e-11 -1.9531e-08 0)
(3.19826e-11 -1.95313e-08 0)
(3.19875e-11 -1.95312e-08 0)
(3.19904e-11 -1.95312e-08 0)
(3.1994e-11 -1.95312e-08 0)
(3.19962e-11 -1.95312e-08 0)
(3.19975e-11 -1.95312e-08 0)
(3.19988e-11 -1.95312e-08 0)
(3.19991e-11 -1.95312e-08 0)
(3.2e-11 -1.95312e-08 0)
(3.20002e-11 -1.95312e-08 0)
(3.20006e-11 -1.95312e-08 0)
(2.48468e-11 -3.86706e-08 0)
(3.51679e-11 -1.49914e-08 0)
(3.08873e-11 -2.06081e-08 0)
(3.23567e-11 -1.92758e-08 0)
(3.18106e-11 -1.95918e-08 0)
(3.19984e-11 -1.95169e-08 0)
(3.19484e-11 -1.95347e-08 0)
(3.19751e-11 -1.95304e-08 0)
(3.19758e-11 -1.95314e-08 0)
(3.19831e-11 -1.95312e-08 0)
(3.19869e-11 -1.95313e-08 0)
(3.19909e-11 -1.95312e-08 0)
(3.19931e-11 -1.95312e-08 0)
(3.19957e-11 -1.95312e-08 0)
(3.19971e-11 -1.95312e-08 0)
(3.19984e-11 -1.95312e-08 0)
(3.19991e-11 -1.95312e-08 0)
(3.19997e-11 -1.95312e-08 0)
(3.20002e-11 -1.95312e-08 0)
(3.20004e-11 -1.95312e-08 0)
(4.1561e-11 -4.12546e-10 0)
(2.81895e-11 -2.40663e-08 0)
(3.31585e-11 -1.84556e-08 0)
(3.14664e-11 -1.97864e-08 0)
(3.20928e-11 -1.94707e-08 0)
(3.19078e-11 -1.95456e-08 0)
(3.19806e-11 -1.95279e-08 0)
(3.19684e-11 -1.95321e-08 0)
(3.19809e-11 -1.95311e-08 0)
(3.19844e-11 -1.95313e-08 0)
(3.19889e-11 -1.95312e-08 0)
(3.19915e-11 -1.95312e-08 0)
(3.19944e-11 -1.95312e-08 0)
(3.19957e-11 -1.95312e-08 0)
(3.19973e-11 -1.95312e-08 0)
(3.19988e-11 -1.95312e-08 0)
(3.19993e-11 -1.95312e-08 0)
(3.2e-11 -1.95312e-08 0)
(3.20002e-11 -1.95312e-08 0)
(3.20004e-11 -1.95312e-08 0)
(1.86287e-11 -3.86298e-08 0)
(3.64823e-11 -1.5001e-08 0)
(3.04037e-11 -2.06058e-08 0)
(3.24788e-11 -1.92764e-08 0)
(3.1779e-11 -1.95917e-08 0)
(3.20129e-11 -1.95169e-08 0)
(3.19509e-11 -1.95347e-08 0)
(3.19813e-11 -1.95305e-08 0)
(3.19804e-11 -1.95314e-08 0)
(3.19875e-11 -1.95312e-08 0)
(3.19904e-11 -1.95313e-08 0)
(3.19933e-11 -1.95312e-08 0)
(3.19955e-11 -1.95312e-08 0)
(3.19968e-11 -1.95312e-08 0)
(3.1998e-11 -1.95312e-08 0)
(3.19991e-11 -1.95312e-08 0)
(3.19995e-11 -1.95312e-08 0)
(3.20002e-11 -1.95312e-08 0)
(3.20004e-11 -1.95312e-08 0)
(3.20004e-11 -1.95312e-08 0)
(4.49949e-11 -4.51369e-10 0)
(2.75273e-11 -2.40571e-08 0)
(3.33925e-11 -1.84578e-08 0)
(3.14071e-11 -1.97859e-08 0)
(3.21094e-11 -1.94709e-08 0)
(3.19107e-11 -1.95456e-08 0)
(3.199e-11 -1.95279e-08 0)
(3.19758e-11 -1.95321e-08 0)
(3.1988e-11 -1.95311e-08 0)
(3.19895e-11 -1.95313e-08 0)
(3.19933e-11 -1.95312e-08 0)
(3.19949e-11 -1.95313e-08 0)
(3.19964e-11 -1.95312e-08 0)
(3.19977e-11 -1.95312e-08 0)
(3.19984e-11 -1.95312e-08 0)
(3.19991e-11 -1.95312e-08 0)
(3.19997e-11 -1.95312e-08 0)
(3.19997e-11 -1.95312e-08 0)
(3.20002e-11 -1.95312e-08 0)
(3.20004e-11 -1.95312e-08 0)
(1.61871e-11 -3.8592e-08 0)
(3.67615e-11 -1.501e-08 0)
(3.02292e-11 -2.06038e-08 0)
(3.24913e-11 -1.92769e-08 0)
(3.17812e-11 -1.95916e-08 0)
(3.20254e-11 -1.9517e-08 0)
(3.1964e-11 -1.95347e-08 0)
(3.19933e-11 -1.95305e-08 0)
(3.19904e-11 -1.95315e-08 0)
(3.19946e-11 -1.95312e-08 0)
(3.19955e-11 -1.95313e-08 0)
(3.19964e-11 -1.95313e-08 0)
(3.19975e-11 -1.95313e-08 0)
(3.19982e-11 -1.95312e-08 0)
(3.19991e-11 -1.95312e-08 0)
(3.19993e-11 -1.95312e-08 0)
(3.2e-11 -1.95312e-08 0)
(3.19997e-11 -1.95312e-08 0)
(3.20004e-11 -1.95312e-08 0)
(3.20004e-11 -1.95312e-08 0)
(4.44801e-11 -4.86673e-10 0)
(2.79157e-11 -2.40486e-08 0)
(3.32541e-11 -1.84599e-08 0)
(3.14673e-11 -1.97855e-08 0)
(3.21051e-11 -1.94711e-08 0)
(3.19398e-11 -1.95456e-08 0)
(3.20078e-11 -1.95279e-08 0)
(3.19937e-11 -1.95321e-08 0)
(3.20006e-11 -1.95311e-08 0)
(3.19993e-11 -1.95313e-08 0)
(3.19997e-11 -1.95312e-08 0)
(3.19997e-11 -1.95313e-08 0)
(3.2e-11 -1.95313e-08 0)
(3.2e-11 -1.95312e-08 0)
(3.19997e-11 -1.95312e-08 0)
(3.20004e-11 -1.95312e-08 0)
(3.20002e-11 -1.95312e-08 0)
(3.20004e-11 -1.95312e-08 0)
(3.20004e-11 -1.95312e-08 0)
(3.20004e-11 -1.95312e-08 0)
(1.39233e-11 -3.85584e-08 0)
(3.6678e-11 -1.50181e-08 0)
(3.01195e-11 -2.06021e-08 0)
(3.25016e-11 -1.92774e-08 0)
(3.18294e-11 -1.95916e-08 0)
(3.2067e-11 -1.9517e-08 0)
(3.19964e-11 -1.95347e-08 0)
(3.20164e-11 -1.95305e-08 0)
(3.20063e-11 -1.95315e-08 0)
(3.20061e-11 -1.95312e-08 0)
(3.20032e-11 -1.95313e-08 0)
(3.20022e-11 -1.95313e-08 0)
(3.20013e-11 -1.95313e-08 0)
(3.20007e-11 -1.95312e-08 0)
(3.20005e-11 -1.95312e-08 0)
(3.20005e-11 -1.95312e-08 0)
(3.20002e-11 -1.95312e-08 0)
(3.20004e-11 -1.95312e-08 0)
(3.20004e-11 -1.95312e-08 0)
(3.20005e-11 -1.95312e-08 0)
(4.03428e-11 -5.1495e-10 0)
(2.89526e-11 -2.40423e-08 0)
(3.28553e-11 -1.84623e-08 0)
(3.18272e-11 -1.9785e-08 0)
(3.21266e-11 -1.94713e-08 0)
(3.20415e-11 -1.95455e-08 0)
(3.20388e-11 -1.95279e-08 0)
(3.20247e-11 -1.95321e-08 0)
(3.20161e-11 -1.95311e-08 0)
(3.20108e-11 -1.95313e-08 0)
(3.20066e-11 -1.95312e-08 0)
(3.20046e-11 -1.95313e-08 0)
(3.20027e-11 -1.95312e-08 0)
(3.20018e-11 -1.95312e-08 0)
(3.20012e-11 -1.95312e-08 0)
(3.20007e-11 -1.95312e-08 0)
(3.20007e-11 -1.95312e-08 0)
(3.20006e-11 -1.95312e-08 0)
(3.20005e-11 -1.95312e-08 0)
(3.20004e-11 -1.95312e-08 0)
(-4.48264e-12 -3.85352e-08 0)
(5.26229e-11 -1.50223e-08 0)
(2.33515e-11 -2.06018e-08 0)
(3.56086e-11 -1.92773e-08 0)
(3.1029e-11 -1.95916e-08 0)
(3.24593e-11 -1.95169e-08 0)
(3.19382e-11 -1.95347e-08 0)
(3.2069e-11 -1.95304e-08 0)
(3.20097e-11 -1.95314e-08 0)
(3.20164e-11 -1.95312e-08 0)
(3.20077e-11 -1.95313e-08 0)
(3.20058e-11 -1.95312e-08 0)
(3.20033e-11 -1.95312e-08 0)
(3.20023e-11 -1.95312e-08 0)
(3.20016e-11 -1.95312e-08 0)
(3.20008e-11 -1.95312e-08 0)
(3.20007e-11 -1.95312e-08 0)
(3.20002e-11 -1.95312e-08 0)
(3.20004e-11 -1.95312e-08 0)
(3.20006e-11 -1.95312e-08 0)
)
;

boundaryField
{
    movingWall
    {
        type            calculated;
        value           uniform (3.20004e-11 -1.95312e-08 0);
    }
    fixedWalls
    {
        type            calculated;
        value           uniform (3.20004e-11 -1.95312e-08 0);
    }
    frontAndBack
    {
        type            empty;
    }
}


// ************************************************************************* //
