/*--------------------------------*- C++ -*----------------------------------*\
| =========                 |                                                 |
| \\      /  F ield         | OpenFOAM: The Open Source CFD Toolbox           |
|  \\    /   O peration     | Version:  2506                                  |
|   \\  /    A nd           | Website:  www.openfoam.com                      |
|    \\/     M anipulation  |                                                 |
\*---------------------------------------------------------------------------*/
FoamFile
{
    version     2.0;
    format      ascii;
    arch        "LSB;label=32;scalar=64";
    class       volScalarField;
    location    "4.375";
    object      divU;
}
// * * * * * * * * * * * * * * * * * * * * * * * * * * * * * * * * * * * * * //

dimensions      [0 0 -1 0 0 0 0];

internalField   nonuniform List<scalar> 
400
(
-4.82389e-10
2.61092e-09
-1.35956e-09
7.117e-10
-2.71027e-10
8.51481e-11
-3.13014e-11
8.4063e-12
-3.15029e-12
7.0312e-13
-3.22005e-13
2.42099e-14
-8.73492e-14
1.27045e-14
-1.25827e-16
-1.23227e-14
-1.03025e-14
4.94688e-14
-9.03155e-15
-2.71051e-14
-1.26041e-09
-3.25531e-09
5.55431e-10
-2.08121e-10
4.5009e-11
-5.70678e-12
2.23268e-12
-2.05793e-14
-1.66742e-13
-6.84164e-14
-2.72184e-14
-3.09935e-14
-2.3938e-14
2.06831e-14
1.55813e-14
-1.2348e-14
-4.32754e-14
2.74544e-14
-5.10124e-15
0
3.61039e-10
7.09341e-09
-1.35849e-09
6.17526e-10
-1.19111e-10
4.30725e-11
-1.06058e-11
3.56352e-12
-8.48754e-13
3.10999e-13
-1.96172e-14
5.33916e-14
-4.07548e-14
9.74105e-15
-7.68825e-15
-2.26281e-14
-9.66585e-15
-3.6399e-15
3.47846e-14
-2.71051e-14
-1.55702e-09
-7.03584e-09
1.13549e-09
-5.82217e-10
1.00725e-10
-3.12923e-11
9.55899e-12
-1.61325e-12
8.05134e-13
-7.55156e-14
6.65937e-14
-1.53234e-14
1.50449e-14
1.73572e-14
8.88526e-15
4.11871e-14
-4.74441e-14
-8.77341e-15
6.39969e-15
0
2.23576e-09
6.54772e-09
-1.07105e-09
5.35164e-10
-1.00121e-10
2.97729e-11
-8.98439e-12
2.20883e-12
-5.71559e-13
2.30498e-13
4.03784e-14
5.8689e-14
-7.29165e-15
-5.25697e-14
1.24081e-14
-9.85194e-15
-3.30272e-14
3.73914e-14
1.72129e-14
0
-3.29638e-09
-4.69151e-09
6.77931e-10
-3.73655e-10
6.38399e-11
-1.88766e-11
5.55507e-12
-1.13228e-12
3.8384e-13
-1.03825e-13
9.68498e-14
9.81849e-15
3.64698e-14
-3.80088e-14
2.98209e-14
2.10359e-14
-8.35623e-16
1.58393e-14
1.15935e-14
-5.42101e-14
3.75082e-09
3.21261e-09
-4.13484e-10
2.46393e-10
-3.98938e-11
1.11104e-11
-3.40373e-12
6.38681e-13
-1.08968e-13
4.91132e-15
3.73381e-14
2.12469e-14
-1.99808e-14
1.39301e-14
2.10024e-14
-5.31483e-14
-5.4195e-15
-1.62812e-14
5.8148e-15
5.42101e-14
-4.23888e-09
-1.52852e-09
7.98966e-11
-1.04651e-10
8.37895e-12
-1.84969e-12
5.14911e-13
6.8542e-14
-1.1614e-14
1.46039e-14
-8.21394e-15
3.20779e-14
1.97375e-14
-3.50758e-14
-5.09743e-14
3.19645e-14
1.62909e-14
3.54406e-14
6.42837e-15
-5.42101e-14
4.29837e-09
4.9178e-10
1.00418e-10
2.01166e-11
9.03507e-12
-3.35147e-12
1.00995e-12
-5.08634e-13
1.26704e-13
-8.39478e-14
4.39502e-14
1.29173e-14
7.941e-16
2.84711e-14
4.35674e-14
-2.65496e-14
-4.73368e-14
3.53305e-15
-3.61222e-14
5.42101e-14
-4.46889e-09
5.16597e-10
-3.01553e-10
6.07331e-11
-2.87584e-11
8.86176e-12
-2.77633e-12
9.16233e-13
-3.26895e-13
3.94895e-14
-6.44355e-15
4.88552e-14
2.62202e-14
-2.23634e-14
2.09308e-14
-3.17521e-14
-1.00435e-14
1.85765e-14
-3.91016e-14
2.71051e-14
4.47274e-09
-1.04171e-09
3.94699e-10
-1.00999e-10
3.85529e-11
-1.15404e-11
3.60287e-12
-1.17993e-12
4.06315e-13
-1.02727e-13
-5.90625e-14
-7.35854e-15
8.16943e-14
-1.28626e-14
8.47013e-15
-6.15001e-14
-3.86595e-14
3.82772e-14
-9.64023e-15
0
-4.64215e-09
1.58726e-09
-5.13844e-10
1.4496e-10
-5.04298e-11
1.48793e-11
-4.69267e-12
1.42538e-12
-4.59216e-13
7.23823e-14
1.36338e-14
-1.63361e-15
4.7551e-15
8.97608e-15
-4.48872e-14
-2.63673e-14
-1.51107e-14
6.36233e-14
2.11954e-14
-2.71051e-14
4.66074e-09
-1.79634e-09
5.5185e-10
-1.61634e-10
5.44238e-11
-1.60614e-11
5.04915e-12
-1.58623e-12
4.69251e-13
-1.54128e-13
2.24498e-15
-3.85321e-14
3.89265e-14
-6.20729e-14
7.91429e-14
-3.0257e-14
-3.20152e-14
5.83188e-14
7.08543e-15
0
-4.77133e-09
2.0978e-09
-6.20767e-10
1.86611e-10
-6.12995e-11
1.78316e-11
-5.57945e-12
1.69298e-12
-4.88101e-13
1.7342e-13
4.27491e-15
8.80747e-15
1.25927e-14
-5.35211e-14
7.50607e-14
-2.40869e-14
-3.59798e-14
7.38607e-14
-1.74881e-14
0
4.62762e-09
-2.05927e-09
5.96221e-10
-1.82412e-10
5.86811e-11
-1.72097e-11
5.32582e-12
-1.65897e-12
5.00484e-13
-1.05775e-13
1.06713e-13
-6.12828e-14
4.82938e-14
4.32355e-14
-6.80991e-14
1.96592e-14
-1.1196e-14
-5.11173e-16
5.03402e-14
-2.71051e-14
-4.63556e-09
2.24842e-09
-6.37671e-10
1.97396e-10
-6.30767e-11
1.81812e-11
-5.62444e-12
1.81063e-12
-4.21068e-13
1.37671e-13
-8.97724e-14
-3.58552e-15
3.39576e-15
5.39074e-14
-7.99866e-15
5.09683e-14
-6.82741e-14
3.39474e-14
1.0704e-14
0
4.19803e-09
-1.932e-09
5.16209e-10
-1.66977e-10
5.01069e-11
-1.40234e-11
4.69865e-12
-1.09309e-12
4.76546e-13
-8.59004e-14
4.99964e-14
-1.42136e-14
4.74357e-14
-1.54302e-14
-3.43443e-14
4.098e-15
3.7859e-14
-1.92509e-14
9.59858e-16
0
-4.1677e-09
2.25444e-09
-6.56654e-10
2.21839e-10
-6.63291e-11
2.28539e-11
-6.35862e-12
2.36557e-12
-6.01084e-13
2.10999e-13
-7.68559e-14
3.13218e-14
-4.47779e-14
3.46464e-14
1.95115e-15
-4.46202e-15
-3.4013e-14
6.3638e-14
3.35921e-14
-2.71051e-14
2.84861e-09
-1.16861e-09
3.20135e-10
-5.6211e-11
1.9493e-11
-5.84296e-13
1.1193e-13
2.48801e-13
-1.67556e-13
-5.79223e-15
-8.54542e-15
2.0135e-14
-4.71087e-14
-4.95117e-15
-1.87725e-14
-1.88943e-14
2.21203e-14
5.27432e-15
-8.51716e-15
0
-2.81849e-09
2.98817e-09
-1.54258e-09
7.44982e-10
-2.72785e-10
9.00159e-11
-3.06016e-11
8.97177e-12
-3.08998e-12
8.13152e-13
-2.71051e-13
0
-5.42101e-14
2.71051e-14
2.71051e-14
-5.42101e-14
-2.71051e-14
2.71051e-14
2.71051e-14
-2.71051e-14
)
;

boundaryField
{
    movingWall
    {
        type            extrapolatedCalculated;
        value           nonuniform List<scalar> 
20
(
-2.81849e-09
2.98817e-09
-1.54258e-09
7.44982e-10
-2.72785e-10
9.00159e-11
-3.06016e-11
8.97177e-12
-3.08998e-12
8.13152e-13
-2.71051e-13
0
-5.42101e-14
2.71051e-14
2.71051e-14
-5.42101e-14
-2.71051e-14
2.71051e-14
2.71051e-14
-2.71051e-14
)
;
    }
    fixedWalls
    {
        type            extrapolatedCalculated;
        value           nonuniform List<scalar> 
60
(
-4.82389e-10
-1.26041e-09
3.61039e-10
-1.55702e-09
2.23576e-09
-3.29638e-09
3.75082e-09
-4.23888e-09
4.29837e-09
-4.46889e-09
4.47274e-09
-4.64215e-09
4.66074e-09
-4.77133e-09
4.62762e-09
-4.63556e-09
4.19803e-09
-4.1677e-09
2.84861e-09
-2.81849e-09
-2.71051e-14
0
-2.71051e-14
0
0
-5.42101e-14
5.42101e-14
-5.42101e-14
5.42101e-14
2.71051e-14
0
-2.71051e-14
0
0
-2.71051e-14
0
0
-2.71051e-14
0
-2.71051e-14
-4.82389e-10
2.61092e-09
-1.35956e-09
7.117e-10
-2.71027e-10
8.51481e-11
-3.13014e-11
8.4063e-12
-3.15029e-12
7.0312e-13
-3.22005e-13
2.42099e-14
-8.73492e-14
1.27045e-14
-1.25827e-16
-1.23227e-14
-1.03025e-14
4.94688e-14
-9.03155e-15
-2.71051e-14
)
;
    }
    frontAndBack
    {
        type            empty;
    }
}


// ************************************************************************* //
