/*--------------------------------*- C++ -*----------------------------------*\
| =========                 |                                                 |
| \\      /  F ield         | OpenFOAM: The Open Source CFD Toolbox           |
|  \\    /   O peration     | Version:  2506                                  |
|   \\  /    A nd           | Website:  www.openfoam.com                      |
|    \\/     M anipulation  |                                                 |
\*---------------------------------------------------------------------------*/
FoamFile
{
    version     2.0;
    format      ascii;
    arch        "LSB;label=32;scalar=64";
    class       volScalarField;
    location    "4.375";
    object      enstrophyField;
}
// * * * * * * * * * * * * * * * * * * * * * * * * * * * * * * * * * * * * * //

dimensions      [0 0 -2 0 0 0 0];

internalField   nonuniform List<scalar> 
400
(
1.10647e-12
1.69995e-12
9.59215e-14
5.44004e-15
3.05315e-16
1.76373e-17
9.51352e-19
6.17562e-20
2.35805e-21
3.61202e-22
3.92541e-25
1.21071e-23
2.79202e-24
1.75378e-24
7.12493e-25
2.99042e-25
7.75984e-26
2.64351e-26
4.56507e-27
5.24955e-28
1.09644e-12
1.69724e-12
9.57847e-14
5.40514e-15
3.0503e-16
1.72114e-17
9.71583e-19
5.47699e-20
3.09535e-21
1.75883e-22
9.92321e-24
4.55222e-25
6.44233e-26
1.72926e-28
5.53741e-27
2.97024e-27
1.75554e-27
2.2411e-27
1.02448e-26
4.47473e-27
1.09492e-12
1.68756e-12
9.50341e-14
5.35131e-15
3.0132e-16
1.6969e-17
9.55134e-19
5.38811e-20
3.00692e-21
1.76317e-22
8.68233e-24
7.46572e-25
4.85407e-28
3.5683e-26
1.47473e-26
2.54765e-26
3.20827e-26
1.37659e-26
1.21898e-26
1.02912e-26
1.09989e-12
1.68223e-12
9.4687e-14
5.32902e-15
2.99926e-16
1.68789e-17
9.50256e-19
5.34015e-20
3.02797e-21
1.64602e-22
1.0772e-23
3.154e-25
1.29281e-25
1.76119e-26
2.26835e-26
2.20355e-26
2.94514e-26
2.49322e-26
1.41522e-26
1.74315e-26
1.09729e-12
1.67342e-12
9.41618e-14
5.29784e-15
2.98064e-16
1.67715e-17
9.43168e-19
5.31622e-20
2.97282e-21
1.71684e-22
8.42725e-24
8.18507e-25
3.93016e-28
4.69314e-26
2.50792e-26
3.1998e-26
3.59247e-26
3.51003e-26
2.31538e-26
3.58411e-26
1.09382e-12
1.66562e-12
9.37094e-14
5.27153e-15
2.9656e-16
1.66804e-17
9.38964e-19
5.26894e-20
2.99373e-21
1.61092e-22
1.07166e-23
2.97223e-25
1.33595e-25
1.3093e-26
4.57614e-26
3.2067e-26
3.94862e-26
4.75005e-26
2.58245e-26
2.24242e-26
1.08822e-12
1.65746e-12
9.32458e-14
5.2453e-15
2.95052e-16
1.66003e-17
9.33239e-19
5.26083e-20
2.93309e-21
1.70763e-22
8.37518e-24
9.06368e-25
1.95314e-27
3.87836e-26
1.62953e-26
1.69253e-26
2.86017e-26
1.88849e-26
3.61148e-26
2.29205e-26
1.08312e-12
1.65086e-12
9.28767e-14
5.22461e-15
2.93912e-16
1.65329e-17
9.30403e-19
5.22446e-20
2.96511e-21
1.62548e-22
1.0293e-23
3.20936e-25
1.13475e-25
1.41791e-26
3.53834e-26
3.81204e-26
3.53944e-26
3.985e-26
3.52728e-26
2.97571e-26
1.07795e-12
1.64476e-12
9.25382e-14
5.20592e-15
2.92867e-16
1.6478e-17
9.26737e-19
5.22133e-20
2.91939e-21
1.69899e-22
8.26924e-24
7.28302e-25
1.32853e-27
7.61296e-26
2.78824e-26
3.92095e-26
1.82879e-26
2.32075e-26
1.45079e-26
1.53336e-26
1.07383e-12
1.63992e-12
9.22715e-14
5.19118e-15
2.92069e-16
1.6431e-17
9.24787e-19
5.1937e-20
2.94499e-21
1.59059e-22
1.0179e-23
3.7462e-25
1.00305e-25
1.81335e-26
3.18923e-26
1.81149e-26
1.71579e-26
2.14296e-26
1.29834e-26
1.85559e-26
1.07012e-12
1.6355e-12
9.2027e-14
5.1777e-15
2.91313e-16
1.63918e-17
9.2213e-19
5.19163e-20
2.90902e-21
1.66481e-22
8.5776e-24
7.02455e-25
1.27738e-26
1.39806e-26
5.96214e-27
1.86243e-26
1.96232e-26
1.52075e-26
1.5435e-26
8.14297e-27
1.06708e-12
1.63163e-12
9.18114e-14
5.16563e-15
2.90645e-16
1.63523e-17
9.20282e-19
5.17249e-20
2.91783e-21
1.62465e-22
9.55621e-24
4.22712e-25
5.37824e-26
7.91296e-28
5.20908e-27
7.83517e-27
9.22035e-27
2.28706e-27
6.32368e-27
2.71197e-27
1.06432e-12
1.62799e-12
9.16072e-14
5.15415e-15
2.89989e-16
1.63163e-17
9.17953e-19
5.16797e-20
2.90146e-21
1.66177e-22
8.6621e-24
6.55729e-25
8.17089e-28
1.45759e-26
2.36667e-27
6.73876e-27
1.18093e-26
1.39633e-26
8.74981e-27
2.0853e-27
1.06167e-12
1.62443e-12
9.14057e-14
5.14271e-15
2.89343e-16
1.62792e-17
9.16006e-19
5.15493e-20
2.9018e-21
1.64094e-22
9.55675e-24
4.39852e-25
2.56729e-26
1.73155e-29
1.92294e-27
5.13272e-28
4.14466e-28
5.64725e-29
6.37066e-28
1.23421e-27
1.05946e-12
1.6212e-12
9.12214e-14
5.13218e-15
2.88743e-16
1.62451e-17
9.14011e-19
5.14377e-20
2.88929e-21
1.61567e-22
9.54809e-24
3.8316e-25
4.49379e-26
8.40111e-29
6.93375e-28
1.08835e-27
4.05915e-27
1.58059e-27
2.00305e-28
5.21459e-28
1.05691e-12
1.61781e-12
9.10289e-14
5.12124e-15
2.88119e-16
1.62098e-17
9.12044e-19
5.12984e-20
2.88455e-21
1.62285e-22
8.89156e-24
4.53631e-25
3.11213e-26
1.75231e-27
5.68192e-28
4.8189e-27
1.23576e-28
1.19552e-27
9.77428e-30
2.3818e-29
1.05552e-12
1.61516e-12
9.08764e-14
5.1125e-15
2.87618e-16
1.61817e-17
9.10362e-19
5.12119e-20
2.88307e-21
1.62176e-22
9.21315e-24
5.50274e-25
1.4698e-26
4.77257e-27
4.73433e-28
5.82322e-29
1.17967e-27
1.91327e-27
9.88765e-29
2.02423e-28
1.05268e-12
1.61195e-12
9.0695e-14
5.10222e-15
2.87035e-16
1.61482e-17
9.08459e-19
5.10926e-20
2.87657e-21
1.60843e-22
9.25453e-24
4.92329e-25
1.99548e-26
2.45906e-27
6.32016e-29
5.88463e-28
1.00428e-27
2.30075e-30
1.74746e-29
1.46626e-28
1.05468e-12
1.61339e-12
9.09113e-14
5.12197e-15
2.88584e-16
1.62587e-17
9.16115e-19
5.16014e-20
2.91268e-21
1.63116e-22
8.95051e-24
5.70997e-25
2.64969e-26
1.27539e-27
2.89147e-31
7.27701e-28
1.01106e-29
9.09305e-28
8.45509e-28
9.85561e-29
1.05461e-12
1.61119e-12
9.0858e-14
5.13711e-15
2.89216e-16
1.65133e-17
9.15171e-19
5.49516e-20
2.69233e-21
2.2248e-22
3.9076e-24
2.23509e-24
6.77585e-26
9.29698e-26
2.07382e-26
6.17863e-27
2.72927e-27
3.22612e-29
1.47783e-30
5.14878e-28
)
;

boundaryField
{
    movingWall
    {
        type            calculated;
        value           nonuniform List<scalar> 
20
(
1.07178e-12
1.62286e-12
9.20041e-14
5.2492e-15
2.96575e-16
1.72897e-17
9.45842e-19
6.11325e-20
2.60235e-21
3.09004e-22
7.43996e-25
5.49307e-24
4.80844e-25
3.70573e-25
1.26213e-25
2.15248e-26
1.1689e-26
3.26313e-27
1.47783e-30
4.39946e-27
)
;
    }
    fixedWalls
    {
        type            calculated;
        value           nonuniform List<scalar> 
60
(
3.05036e-11
3.04362e-11
3.03111e-11
3.02189e-11
3.00635e-11
2.99247e-11
2.97788e-11
2.966e-11
2.95499e-11
2.94621e-11
2.93821e-11
2.93123e-11
2.92467e-11
2.91829e-11
2.91252e-11
2.90646e-11
2.90174e-11
2.89595e-11
2.89436e-11
2.89135e-11
4.12134e-28
3.34161e-27
8.70943e-27
1.66069e-26
3.24384e-26
2.24975e-26
1.96399e-26
2.02668e-26
1.09845e-26
1.38257e-26
5.58038e-27
1.82076e-27
1.53559e-27
1.1536e-27
3.01805e-28
1.27034e-28
3.52376e-28
1.59377e-28
2.22494e-29
1.00364e-27
1.12827e-12
1.71314e-12
9.71088e-14
5.56789e-15
3.1181e-16
1.8611e-17
9.59873e-19
7.23862e-20
1.77464e-21
6.61327e-22
2.09178e-23
4.12903e-23
1.31044e-23
7.0127e-24
2.86008e-24
1.24588e-24
3.53594e-25
1.17268e-25
1.52371e-26
2.94998e-27
)
;
    }
    frontAndBack
    {
        type            empty;
    }
}


// ************************************************************************* //
