/*--------------------------------*- C++ -*----------------------------------*\
| =========                 |                                                 |
| \\      /  F ield         | OpenFOAM: The Open Source CFD Toolbox           |
|  \\    /   O peration     | Version:  2506                                  |
|   \\  /    A nd           | Website:  www.openfoam.com                      |
|    \\/     M anipulation  |                                                 |
\*---------------------------------------------------------------------------*/
FoamFile
{
    version     2.0;
    format      ascii;
    arch        "LSB;label=32;scalar=64";
    class       volScalarField;
    location    "4.375";
    object      flowTypeField;
}
// * * * * * * * * * * * * * * * * * * * * * * * * * * * * * * * * * * * * * //

dimensions      [0 0 0 0 0 0 0];

internalField   nonuniform List<scalar> 
400
(
0.00119809
-0.000525885
-0.000896941
-0.00309351
-0.00149653
-0.0108325
0.00881487
-0.0543029
0.123504
-0.360171
0.837903
-0.159551
0.160394
0.0472048
0.0988458
0.118226
0.219583
0.216139
0.369557
0.473427
0.00515881
5.29233e-05
0.000208086
-0.00204327
-0.000964396
-0.00630211
0.000275851
-0.0202652
0.0229106
-0.0864587
0.225533
0.426671
0.701421
0.972312
0.813837
0.815252
0.805643
0.638827
0.13711
0.0675304
0.00389023
0.000567537
0.000973622
0.001144
0.000360425
0.00372611
-0.00421381
0.0169119
-0.0363031
0.0948771
-0.190449
0.45723
0.96237
0.661754
0.690472
0.513174
0.313213
0.296278
0.0885428
0.0739756
-0.00054431
-0.000127555
-0.00023435
-0.000268885
-8.30973e-05
-0.00175093
0.0036468
-0.0140126
0.0349894
-0.121952
0.223729
0.282941
0.566146
0.719253
0.619295
0.509285
0.372337
0.219206
0.188856
0.0142723
-0.00212117
-0.000376458
-0.000629147
-0.000581866
-0.000905357
-0.000252676
-0.00368339
0.00817308
-0.033778
0.0870231
-0.449187
0.412332
0.95512
0.58436
0.567599
0.418877
0.292674
0.120493
0.125835
-0.249344
-0.00298819
-0.000496999
-0.000857902
-0.000780412
-0.000966949
-0.0015714
0.000251269
-0.00790272
0.0198633
-0.0804453
0.180977
0.0560372
0.513831
0.714643
0.417171
0.391593
0.228207
0.00928339
0.109118
0.132976
-0.00284086
-0.000467603
-0.000774521
-0.000740843
-0.000898864
-0.000971713
-0.00202609
0.0026423
-0.0170421
0.0519412
-0.210322
0.316653
0.891467
0.573174
0.610905
0.542072
0.315019
0.357331
0.000230451
0.132977
-0.00244681
-0.000395449
-0.000657306
-0.000604257
-0.000757273
-0.000981182
-0.000489997
-0.00350896
0.00834472
-0.0421314
0.130979
0.139617
0.483333
0.666495
0.432086
0.313753
0.227098
0.0549185
0.00995283
-0.112728
-0.00182547
-0.000295562
-0.000466254
-0.000467311
-0.00051415
-0.000679665
-0.000894885
0.000362252
-0.00644259
0.0216862
-0.0391979
0.292015
0.894564
0.379358
0.482152
0.234328
0.360544
0.190904
0.251329
0.160041
-0.00133789
-0.000218989
-0.000340253
-0.000339377
-0.000422617
-0.000462657
-0.000596362
-0.000720501
0.000960394
-0.000801687
0.0580707
0.244443
0.457608
0.588823
0.404374
0.382475
0.338698
0.165625
0.182099
-0.0917341
-0.000905731
-0.000152689
-0.000227148
-0.000252851
-0.000267703
-0.000425202
-0.000293193
-0.000741971
0.000367971
0.00287255
0.0336005
0.195442
0.748041
0.643464
0.677406
0.331037
0.229769
0.24478
-0.0425774
0.00505525
-0.000629028
-0.000108531
-0.000163681
-0.000175486
-0.000225856
-0.000200927
-0.000596734
0.000802443
-0.00336276
0.0120369
0.00945078
0.28321
0.503995
0.902781
0.687063
0.537834
0.384537
0.614537
0.219135
0.271557
-0.000422373
-7.25951e-05
-0.000112553
-0.000119451
-0.00012768
-0.000254004
0.000190427
-0.00193078
0.00598385
-0.0234652
0.0990729
0.0341026
0.925479
0.570043
0.805796
0.511424
0.157627
0.152503
-0.141968
0.0112563
-0.000231994
-3.638e-05
-5.42041e-05
-5.74972e-05
-6.55467e-05
5.20408e-05
-0.000697049
0.00223867
-0.00919012
0.028421
-0.0944681
0.338948
0.515785
0.977467
0.775773
0.800286
0.74179
0.903424
0.162471
0.0116035
-0.000164225
-1.51724e-05
-4.03372e-05
-1.13623e-05
1.24068e-05
-0.000216164
0.00095337
-0.00372185
0.0135886
-0.0394821
0.109622
-0.110844
0.50942
0.9485
0.780347
0.691708
0.393694
0.337866
0.726451
0.0975274
3.86571e-05
2.19925e-05
3.30829e-05
6.07159e-05
2.13144e-05
0.000518984
-0.0013621
0.00567378
-0.01665
0.0531801
-0.177335
0.369786
0.34292
0.815365
0.819071
0.567282
0.73489
0.493232
0.898355
0.449845
-0.000152974
4.94135e-06
-2.53315e-05
-9.4079e-06
0.000204197
-0.000727759
0.00239286
-0.00724789
0.020307
-0.0657366
0.145679
-0.928503
0.703315
0.638232
0.812795
0.880219
0.342098
0.266467
0.159997
0.000273087
0.00028738
5.82228e-05
9.4183e-05
0.000357762
-8.7278e-05
0.00179024
-0.00229005
0.00967052
-0.020674
0.0614985
-0.182517
0.338371
0.382835
0.737892
0.914718
0.623135
0.514216
0.940739
0.809475
0.411281
-0.00126757
-0.000888309
-0.0015896
-0.00307901
-0.00334241
-0.00692815
-0.0043222
-0.0165811
0.00488164
-0.0569935
0.110829
-0.122872
0.575964
0.764448
0.990041
0.548504
0.865788
0.0930691
0.0329439
0.469773
-0.00194043
-0.000978782
-0.0018237
-0.00337129
-0.00343789
-0.00864865
-0.00132791
-0.0285752
0.0355169
-0.140334
0.349323
-0.383063
0.462007
-0.012577
0.181968
0.334787
0.12683
0.577261
0.888061
0.177701
)
;

boundaryField
{
    movingWall
    {
        type            calculated;
        value           nonuniform List<scalar> 
20
(
0.762124
0.266881
0.264926
0.260912
0.260461
0.249655
0.26077
0.21478
0.311337
0.043068
0.787089
-0.390699
0.254116
-0.090066
0.0397511
0.136184
-0.0250915
0.0957924
0.883449
0.00899577
)
;
    }
    fixedWalls
    {
        type            calculated;
        value           nonuniform List<scalar> 
60
(
0.00022967
0.000984916
0.000751073
-9.55053e-05
-0.000397945
-0.000567213
-0.000541126
-0.00046731
-0.00034907
-0.00025606
-0.0001735
-0.000120546
-8.10423e-05
-4.45796e-05
-3.16378e-05
7.206e-06
-2.94018e-05
5.48809e-05
-0.000241833
-0.000368335
0.462492
0.0450665
0.0173988
0.00436175
-0.265086
0.211589
0.175498
-0.111067
0.154888
-0.182453
0.218585
0.312795
0.0151379
0.0123884
0.14864
0.196801
0.000158213
0.561188
0.734726
0.473557
0.762482
0.267263
0.265887
0.260602
0.263568
0.245284
0.276229
0.177423
0.439699
-0.226495
0.463998
-0.147128
0.0616973
-0.0144425
0.0146011
0.013023
0.0482895
0.0398879
0.133812
0.0649452
)
;
    }
    frontAndBack
    {
        type            empty;
    }
}


// ************************************************************************* //
