/*--------------------------------*- C++ -*----------------------------------*\
| =========                 |                                                 |
| \\      /  F ield         | OpenFOAM: The Open Source CFD Toolbox           |
|  \\    /   O peration     | Version:  2506                                  |
|   \\  /    A nd           | Website:  www.openfoam.com                      |
|    \\/     M anipulation  |                                                 |
\*---------------------------------------------------------------------------*/
FoamFile
{
    version     2.0;
    format      ascii;
    arch        "LSB;label=32;scalar=64";
    class       surfaceScalarField;
    location    "4.375";
    object      fluxField;
}
// * * * * * * * * * * * * * * * * * * * * * * * * * * * * * * * * * * * * * //

dimensions      [0 3 -1 0 0 0 0];

oriented        oriented;

internalField   nonuniform List<scalar> 
760
(
-5e-05
1.72628e-16
-5e-05
4.63293e-17
-5e-05
7.04865e-17
-5e-05
3.09744e-18
-5e-05
1.45479e-17
-5e-05
2.15764e-18
-5e-05
3.34194e-18
-5e-05
1.28842e-18
-5e-05
1.09623e-18
-5e-05
6.63671e-19
-5e-05
4.95481e-19
-5e-05
3.44866e-19
-5e-05
2.49213e-19
-5e-05
1.79359e-19
-5e-05
1.28718e-19
-5e-05
9.1787e-20
-5e-05
6.5187e-20
-5e-05
4.62485e-20
-5e-05
2.48472e-20
6.90381e-21
-5e-05
-1.12435e-15
-5e-05
3.83768e-16
-5e-05
-3.93444e-17
-5e-05
3.67863e-17
-5e-05
8.46043e-18
-5e-05
7.17916e-18
-5e-05
4.2309e-18
-5e-05
2.65115e-18
-5e-05
1.82856e-18
-5e-05
1.2365e-18
-5e-05
8.87662e-19
-5e-05
6.35997e-19
-5e-05
4.61578e-19
-5e-05
3.37208e-19
-5e-05
2.47841e-19
-5e-05
1.79872e-19
-5e-05
1.24706e-19
-5e-05
8.14025e-20
-5e-05
4.61585e-20
1.33582e-20
-5e-05
1.15251e-15
-5e-05
-3.43029e-16
-5e-05
1.07394e-16
-5e-05
-1.20775e-17
-5e-05
1.70326e-17
-5e-05
4.88634e-18
-5e-05
5.20223e-18
-5e-05
3.05928e-18
-5e-05
2.29503e-18
-5e-05
1.58886e-18
-5e-05
1.16061e-18
-5e-05
8.46828e-19
-5e-05
6.2678e-19
-5e-05
4.63221e-19
-5e-05
3.43667e-19
-5e-05
2.51841e-19
-5e-05
1.73766e-19
-5e-05
1.0751e-19
-5e-05
6.29063e-20
1.96392e-20
-5e-05
-1.39662e-15
-5e-05
3.75692e-16
-5e-05
-8.20806e-17
-5e-05
3.10419e-17
-5e-05
1.47794e-18
-5e-05
7.0576e-18
-5e-05
3.94829e-18
-5e-05
3.26265e-18
-5e-05
2.33581e-18
-5e-05
1.74973e-18
-5e-05
1.29736e-18
-5e-05
9.71951e-19
-5e-05
7.28821e-19
-5e-05
5.4644e-19
-5e-05
4.08797e-19
-5e-05
3.01676e-19
-5e-05
2.11756e-19
-5e-05
1.33332e-19
-5e-05
7.61388e-20
2.39216e-20
-5e-05
1.19789e-15
-5e-05
-2.97442e-16
-5e-05
7.84306e-17
-5e-05
-1.23798e-17
-5e-05
9.69816e-18
-5e-05
3.36391e-18
-5e-05
3.89997e-18
-5e-05
2.78837e-18
-5e-05
2.23558e-18
-5e-05
1.70426e-18
-5e-05
1.31114e-18
-5e-05
1.00401e-18
-5e-05
7.63895e-19
-5e-05
5.83169e-19
-5e-05
4.43559e-19
-5e-05
3.29574e-19
-5e-05
2.35689e-19
-5e-05
1.51649e-19
-5e-05
8.56184e-20
2.74828e-20
-5e-05
-1.16586e-15
-5e-05
2.77865e-16
-5e-05
-6.25907e-17
-5e-05
1.93095e-17
-5e-05
1.23835e-19
-5e-05
4.27973e-18
-5e-05
2.73047e-18
-5e-05
2.46809e-18
-5e-05
1.94588e-18
-5e-05
1.55969e-18
-5e-05
1.23039e-18
-5e-05
9.64684e-19
-5e-05
7.4773e-19
-5e-05
5.80033e-19
-5e-05
4.47912e-19
-5e-05
3.37296e-19
-5e-05
2.43737e-19
-5e-05
1.59814e-19
-5e-05
9.09898e-20
2.90326e-20
-5e-05
9.25324e-16
-5e-05
-2.09884e-16
-5e-05
5.22661e-17
-5e-05
-8.93585e-18
-5e-05
5.34768e-18
-5e-05
1.93056e-18
-5e-05
2.422e-18
-5e-05
1.92828e-18
-5e-05
1.6465e-18
-5e-05
1.34293e-18
-5e-05
1.09354e-18
-5e-05
8.72673e-19
-5e-05
6.9296e-19
-5e-05
5.45584e-19
-5e-05
4.25379e-19
-5e-05
3.25526e-19
-5e-05
2.35814e-19
-5e-05
1.5856e-19
-5e-05
8.95451e-20
2.49701e-20
-5e-05
-8.36316e-16
-5e-05
1.87449e-16
-5e-05
-4.2564e-17
-5e-05
1.16421e-17
-5e-05
-3.71822e-19
-5e-05
2.34295e-18
-5e-05
1.58562e-18
-5e-05
1.53502e-18
-5e-05
1.29814e-18
-5e-05
1.10141e-18
-5e-05
9.12742e-19
-5e-05
7.46632e-19
-5e-05
6.08022e-19
-5e-05
4.85898e-19
-5e-05
3.8028e-19
-5e-05
2.92594e-19
-5e-05
2.14137e-19
-5e-05
1.44385e-19
-5e-05
8.29223e-20
2.18468e-20
-5e-05
6.69133e-16
-5e-05
-1.48356e-16
-5e-05
3.58516e-17
-5e-05
-6.89708e-18
-5e-05
3.00416e-18
-5e-05
8.01988e-19
-5e-05
1.26893e-18
-5e-05
1.05869e-18
-5e-05
9.668e-19
-5e-05
8.32822e-19
-5e-05
7.08943e-19
-5e-05
5.99541e-19
-5e-05
5.01642e-19
-5e-05
4.06917e-19
-5e-05
3.226e-19
-5e-05
2.50861e-19
-5e-05
1.84677e-19
-5e-05
1.22856e-19
-5e-05
7.22846e-20
1.96567e-20
-5e-05
-6.12125e-16
-5e-05
1.38195e-16
-5e-05
-3.19321e-17
-5e-05
7.97334e-18
-5e-05
-1.05029e-18
-5e-05
1.0838e-18
-5e-05
6.06959e-19
-5e-05
6.96621e-19
-5e-05
6.23008e-19
-5e-05
5.65526e-19
-5e-05
4.99833e-19
-5e-05
4.39118e-19
-5e-05
3.7925e-19
-5e-05
3.1967e-19
-5e-05
2.62731e-19
-5e-05
2.08902e-19
-5e-05
1.53343e-19
-5e-05
9.95118e-20
-5e-05
5.79872e-20
1.53017e-20
-5e-05
5.44373e-16
-5e-05
-1.25742e-16
-5e-05
2.94485e-17
-5e-05
-6.84539e-18
-5e-05
1.74389e-18
-5e-05
-1.74585e-19
-5e-05
3.38288e-19
-5e-05
2.67449e-19
-5e-05
3.11643e-19
-5e-05
3.06355e-19
-5e-05
2.96943e-19
-5e-05
2.75987e-19
-5e-05
2.50817e-19
-5e-05
2.27177e-19
-5e-05
1.98629e-19
-5e-05
1.60808e-19
-5e-05
1.19084e-19
-5e-05
7.73319e-20
-5e-05
4.50238e-20
1.20684e-20
-5e-05
-5.16517e-16
-5e-05
1.20066e-16
-5e-05
-2.87348e-17
-5e-05
6.31603e-18
-5e-05
-1.90772e-18
-5e-05
1.01296e-19
-5e-05
-2.58373e-19
-5e-05
-6.37842e-20
-5e-05
-6.38382e-21
-5e-05
5.87532e-20
-5e-05
9.82761e-20
-5e-05
1.21564e-19
-5e-05
1.29938e-19
-5e-05
1.30993e-19
-5e-05
1.24303e-19
-5e-05
1.08605e-19
-5e-05
8.43138e-20
-5e-05
5.65634e-20
-5e-05
3.24039e-20
8.92927e-21
-5e-05
5.04932e-16
-5e-05
-1.18953e-16
-5e-05
2.72994e-17
-5e-05
-7.45547e-18
-5e-05
6.70052e-19
-5e-05
-1.11511e-18
-5e-05
-5.19869e-19
-5e-05
-4.57544e-19
-5e-05
-2.89263e-19
-5e-05
-1.74057e-19
-5e-05
-8.07539e-20
-5e-05
-1.64093e-20
-5e-05
2.32842e-20
-5e-05
4.54681e-20
-5e-05
5.3667e-20
-5e-05
6.01984e-20
-5e-05
5.29826e-20
-5e-05
3.49085e-20
-5e-05
2.21001e-20
6.46573e-21
-5e-05
-4.65655e-16
-5e-05
1.11132e-16
-5e-05
-2.78114e-17
-5e-05
4.81614e-18
-5e-05
-3.00563e-18
-5e-05
-9.56337e-19
-5e-05
-1.13059e-18
-5e-05
-7.69378e-19
-5e-05
-5.69259e-19
-5e-05
-3.76773e-19
-5e-05
-2.361e-19
-5e-05
-1.33323e-19
-5e-05
-6.46145e-20
-5e-05
-2.01565e-20
-5e-05
5.21264e-21
-5e-05
2.10833e-20
-5e-05
2.48864e-20
-5e-05
1.84652e-20
-5e-05
1.59568e-20
4.53762e-21
-5e-05
4.78217e-16
-5e-05
-1.13629e-16
-5e-05
2.42501e-17
-5e-05
-8.70614e-18
-5e-05
-9.28679e-19
-5e-05
-2.26953e-18
-5e-05
-1.43326e-18
-5e-05
-1.12625e-18
-5e-05
-7.89675e-19
-5e-05
-5.4144e-19
-5e-05
-3.52792e-19
-5e-05
-2.18609e-19
-5e-05
-1.30228e-19
-5e-05
-7.05063e-20
-5e-05
-3.05773e-20
-5e-05
-8.63772e-21
-5e-05
3.97726e-21
-5e-05
6.64847e-21
-5e-05
5.80878e-21
5.39311e-22
-5e-05
-4.04369e-16
-5e-05
9.74171e-17
-5e-05
-2.84054e-17
-5e-05
1.83378e-18
-5e-05
-5.04912e-18
-5e-05
-2.28518e-18
-5e-05
-2.04308e-18
-5e-05
-1.3295e-18
-5e-05
-9.45524e-19
-5e-05
-6.29656e-19
-5e-05
-4.15466e-19
-5e-05
-2.65171e-19
-5e-05
-1.68558e-19
-5e-05
-1.0172e-19
-5e-05
-5.62098e-20
-5e-05
-2.79155e-20
-5e-05
-1.02923e-20
-5e-05
-5.06569e-21
-5e-05
-4.10026e-21
-2.65542e-21
-5e-05
4.35264e-16
-5e-05
-1.04933e-16
-5e-05
1.18567e-17
-5e-05
-1.11834e-17
-5e-05
-4.33263e-18
-5e-05
-3.35677e-18
-5e-05
-2.22702e-18
-5e-05
-1.42524e-18
-5e-05
-9.65066e-19
-5e-05
-6.24563e-19
-5e-05
-4.14406e-19
-5e-05
-2.67828e-19
-5e-05
-1.711e-19
-5e-05
-1.05502e-19
-5e-05
-6.27962e-20
-5e-05
-3.28568e-20
-5e-05
-1.76403e-20
-5e-05
-1.1589e-20
-5e-05
-6.5363e-21
-2.77505e-21
-5e-05
-2.71672e-16
-5e-05
5.37769e-17
-5e-05
-4.78897e-17
-5e-05
1.52745e-18
-5e-05
-1.005e-17
-5e-05
-1.81497e-18
-5e-05
-2.55188e-18
-5e-05
-1.08235e-18
-5e-05
-8.55002e-19
-5e-05
-4.89351e-19
-5e-05
-3.37698e-19
-5e-05
-2.15786e-19
-5e-05
-1.39943e-19
-5e-05
-8.62061e-20
-5e-05
-5.37223e-20
-5e-05
-2.82206e-20
-5e-05
-1.52795e-20
-5e-05
-1.11956e-20
-5e-05
-5.1545e-21
-2.393e-21
-5e-05
3.08113e-16
-5e-05
-5.11896e-17
-5e-05
-3.97163e-17
-5e-05
5.69329e-18
-5e-05
-1.0536e-17
-5e-05
2.33397e-19
-5e-05
-2.10654e-18
-5e-05
-4.52796e-19
-5e-05
-5.50109e-19
-5e-05
-2.5217e-19
-5e-05
-1.91872e-19
-5e-05
-1.16939e-19
-5e-05
-7.95398e-20
-5e-05
-4.86716e-20
-5e-05
-3.17982e-20
-5e-05
-1.82761e-20
-5e-05
-8.02246e-21
-5e-05
-5.45768e-21
-5e-05
-2.12929e-21
-2.38325e-21
-5e-05
-5e-05
-5e-05
-5e-05
-5e-05
-5e-05
-5e-05
-5e-05
-5e-05
-5e-05
-5e-05
-5e-05
-5e-05
-5e-05
-5e-05
-5e-05
-5e-05
-5e-05
-5e-05
)
;

boundaryField
{
    movingWall
    {
        type            calculated;
        value           uniform -0;
    }
    fixedWalls
    {
        type            calculated;
        value           nonuniform List<scalar> 
60
(
5e-05
5e-05
5e-05
5e-05
5e-05
5e-05
5e-05
5e-05
5e-05
5e-05
5e-05
5e-05
5e-05
5e-05
5e-05
5e-05
5e-05
5e-05
5e-05
5e-05
-5e-05
-5e-05
-5e-05
-5e-05
-5e-05
-5e-05
-5e-05
-5e-05
-5e-05
-5e-05
-5e-05
-5e-05
-5e-05
-5e-05
-5e-05
-5e-05
-5e-05
-5e-05
-5e-05
-5e-05
0
0
0
0
0
0
0
0
0
0
0
0
0
0
0
0
0
0
0
0
)
;
    }
    frontAndBack
    {
        type            empty;
    }
}


// ************************************************************************* //
