/*--------------------------------*- C++ -*----------------------------------*\
| =========                 |                                                 |
| \\      /  F ield         | OpenFOAM: The Open Source CFD Toolbox           |
|  \\    /   O peration     | Version:  2506                                  |
|   \\  /    A nd           | Website:  www.openfoam.com                      |
|    \\/     M anipulation  |                                                 |
\*---------------------------------------------------------------------------*/
FoamFile
{
    version     2.0;
    format      ascii;
    arch        "LSB;label=32;scalar=64";
    class       volTensorField;
    location    "4.375";
    object      gradU;
}
// * * * * * * * * * * * * * * * * * * * * * * * * * * * * * * * * * * * * * //

dimensions      [0 0 -1 0 0 0 0];

internalField   nonuniform List<tensor> 
400
(
(-1.17289e-09 1.48938e-06 0 1.78378e-09 6.90514e-10 0 0 0 0)
(2.4256e-09 -1.84291e-06 0 9.70768e-10 1.85317e-10 0 0 0 0)
(-1.64151e-09 4.37603e-07 0 -3.9568e-10 2.81946e-10 0 0 0 0)
(6.9931e-10 -1.03984e-07 0 3.24041e-10 1.23898e-11 0 0 0 0)
(-3.29218e-10 2.46717e-08 0 -3.91939e-11 5.81914e-11 0 0 0 0)
(7.65176e-11 -5.87508e-09 0 6.41577e-11 8.63057e-12 0 0 0 0)
(-4.46691e-11 1.39088e-09 0 1.14925e-11 1.33678e-11 0 0 0 0)
(3.25261e-12 -3.33283e-10 0 1.81604e-11 5.1537e-12 0 0 0 0)
(-7.53521e-12 7.79167e-11 0 9.24282e-12 4.38491e-12 0 0 0 0)
(-1.95156e-12 -1.93153e-11 0 7.56231e-12 2.65468e-12 0 0 0 0)
(-2.30393e-12 4.10128e-12 0 4.98733e-12 1.98192e-12 0 0 0 0)
(-1.35525e-12 -1.31583e-12 0 3.60497e-12 1.37946e-12 0 0 0 0)
(-1.0842e-12 7.63962e-14 0 2.43945e-12 9.96853e-13 0 0 0 0)
(-7.04731e-13 -1.92335e-13 0 1.68051e-12 7.17436e-13 0 0 0 0)
(-5.14996e-13 -8.24206e-14 0 1.11131e-12 5.1487e-13 0 0 0 0)
(-3.79471e-13 -6.86275e-14 0 7.04731e-13 3.67148e-13 0 0 0 0)
(-2.71051e-13 -4.15845e-14 0 3.52366e-13 2.60748e-13 0 0 0 0)
(-1.35525e-13 -4.02e-14 0 1.89735e-13 1.84994e-13 0 0 0 0)
(-1.0842e-13 -4.13416e-14 0 5.42101e-14 9.93887e-14 0 0 0 0)
(-5.42101e-14 -3.24023e-14 0 0 2.76153e-14 0 0 0 0)
(3.9275e-09 -1.4885e-06 0 -7.66482e-09 -5.18791e-09 0 0 0 0)
(-4.60507e-09 1.8425e-06 0 9.12627e-11 1.34975e-09 0 0 0 0)
(9.94755e-10 -4.37776e-07 0 -8.97448e-11 -4.39324e-10 0 0 0 0)
(-3.42879e-10 1.0376e-07 0 -2.12666e-10 1.34756e-10 0 0 0 0)
(6.93618e-11 -2.46755e-08 0 2.39067e-11 -2.43497e-11 0 0 0 0)
(-2.5804e-11 5.83026e-09 0 -3.68358e-11 2.00861e-11 0 0 0 0)
(-1.32815e-12 -1.39435e-09 0 -3.79471e-13 3.55584e-12 0 0 0 0)
(-5.47522e-12 3.243e-10 0 -6.66784e-12 5.4509e-12 0 0 0 0)
(-3.08998e-12 -8.04157e-11 0 -1.73472e-12 2.92934e-12 0 0 0 0)
(-2.35814e-12 1.69123e-11 0 -1.84314e-12 2.29133e-12 0 0 0 0)
(-1.5992e-12 -5.3765e-12 0 -9.21572e-13 1.56872e-12 0 0 0 0)
(-1.19262e-12 3.30756e-13 0 -6.23416e-13 1.16452e-12 0 0 0 0)
(-8.67362e-13 -7.38423e-13 0 -3.79471e-13 8.49458e-13 0 0 0 0)
(-6.23416e-13 -2.89648e-13 0 -2.71051e-13 6.31395e-13 0 0 0 0)
(-4.60786e-13 -2.67867e-13 0 -1.6263e-13 4.76493e-13 0 0 0 0)
(-3.52366e-13 -1.85495e-13 0 -1.0842e-13 3.5234e-13 0 0 0 0)
(-2.71051e-13 -1.4057e-13 0 -8.13152e-14 2.38078e-13 0 0 0 0)
(-1.0842e-13 -1.21159e-13 0 -5.42101e-14 1.40616e-13 0 0 0 0)
(-8.13152e-14 -1.16037e-13 0 2.71051e-14 8.52455e-14 0 0 0 0)
(-2.71051e-14 -9.46016e-14 0 0 2.58176e-14 0 0 0 0)
(-8.74642e-09 1.48554e-06 0 5.72583e-09 9.10744e-09 0 0 0 0)
(1.00006e-08 -1.83816e-06 0 -1.01376e-09 -2.90719e-09 0 0 0 0)
(-1.94544e-09 4.36388e-07 0 4.20155e-10 5.86952e-10 0 0 0 0)
(8.12989e-10 -1.03569e-07 0 -1.15115e-10 -1.95455e-10 0 0 0 0)
(-1.53388e-10 2.45571e-08 0 8.34836e-12 3.42886e-11 0 0 0 0)
(5.22314e-11 -5.84718e-09 0 -2.15485e-11 -9.17129e-12 0 0 0 0)
(-1.45012e-11 1.37624e-09 0 -5.8818e-12 3.88532e-12 0 0 0 0)
(1.92446e-12 -3.3391e-10 0 -5.63785e-12 1.63253e-12 0 0 0 0)
(-2.71051e-12 7.47571e-11 0 -2.79182e-12 1.86586e-12 0 0 0 0)
(-1.11131e-12 -2.06759e-11 0 -1.89735e-12 1.40941e-12 0 0 0 0)
(-1.11131e-12 2.97447e-12 0 -1.19262e-12 1.0918e-12 0 0 0 0)
(-7.86047e-13 -2.03509e-12 0 -8.13152e-13 8.43327e-13 0 0 0 0)
(-7.04731e-13 -4.56733e-13 0 -4.87891e-13 6.6081e-13 0 0 0 0)
(-4.87891e-13 -5.653e-13 0 -2.98156e-13 5.04054e-13 0 0 0 0)
(-3.79471e-13 -3.61475e-13 0 -1.89735e-13 3.83306e-13 0 0 0 0)
(-2.98156e-13 -3.07043e-13 0 -8.13152e-14 2.87876e-13 0 0 0 0)
(-2.1684e-13 -2.53309e-13 0 0 1.9624e-13 0 0 0 0)
(-1.0842e-13 -1.93032e-13 0 -2.71051e-14 1.04431e-13 0 0 0 0)
(-2.71051e-14 -1.5614e-13 0 0 6.69909e-14 0 0 0 0)
(-5.42101e-14 -1.43465e-13 0 0 2.51239e-14 0 0 0 0)
(8.63949e-09 -1.4823e-06 0 8.67145e-10 -1.01965e-08 0 0 0 0)
(-9.91072e-09 1.83398e-06 0 -2.62973e-10 2.87489e-09 0 0 0 0)
(1.89337e-09 -4.35064e-07 0 1.0674e-10 -7.57897e-10 0 0 0 0)
(-7.54686e-10 1.03207e-07 0 -3.06558e-11 1.72477e-10 0 0 0 0)
(1.62956e-10 -2.44892e-08 0 2.6563e-12 -6.22186e-11 0 0 0 0)
(-3.998e-11 5.79985e-09 0 -1.02999e-11 8.68504e-12 0 0 0 0)
(1.45825e-11 -1.38355e-09 0 -4.96022e-12 -5.01579e-12 0 0 0 0)
(-2.43945e-12 3.22281e-10 0 -4.52654e-12 8.1345e-13 0 0 0 0)
(6.50521e-13 -8.06388e-11 0 -2.81893e-12 1.6311e-13 0 0 0 0)
(-7.31836e-13 1.61382e-11 0 -2.00577e-12 6.43477e-13 0 0 0 0)
(-4.87891e-13 -5.94258e-12 0 -1.30104e-12 5.46997e-13 0 0 0 0)
(-5.14996e-13 -1.00238e-13 0 -8.94467e-13 5.00491e-13 0 0 0 0)
(-4.06576e-13 -1.0777e-12 0 -5.69206e-13 4.08165e-13 0 0 0 0)
(-3.25261e-13 -5.67151e-13 0 -3.79471e-13 3.32877e-13 0 0 0 0)
(-2.43945e-13 -4.84046e-13 0 -2.71051e-13 2.60519e-13 0 0 0 0)
(-1.6263e-13 -3.72561e-13 0 -1.6263e-13 1.9934e-13 0 0 0 0)
(-1.89735e-13 -3.24014e-13 0 -8.13152e-14 1.51957e-13 0 0 0 0)
(-1.0842e-13 -2.50408e-13 0 -2.71051e-14 1.03287e-13 0 0 0 0)
(-5.42101e-14 -1.95344e-13 0 -2.71051e-14 5.29302e-14 0 0 0 0)
(-2.71051e-14 -1.86716e-13 0 0 1.71296e-14 0 0 0 0)
(-8.14228e-09 1.47822e-06 0 -3.19466e-09 1.03781e-08 0 0 0 0)
(9.24025e-09 -1.82872e-06 0 7.13785e-10 -2.69254e-09 0 0 0 0)
(-1.71309e-09 4.33686e-07 0 -2.76715e-10 6.42045e-10 0 0 0 0)
(7.08851e-10 -1.02873e-07 0 6.245e-11 -1.73687e-10 0 0 0 0)
(-1.33005e-10 2.43933e-08 0 -2.24701e-11 3.28809e-11 0 0 0 0)
(4.45607e-11 -5.78997e-09 0 1.65341e-12 -1.47747e-11 0 0 0 0)
(-8.78204e-12 1.36837e-09 0 -5.06865e-12 -1.93256e-13 0 0 0 0)
(4.09286e-12 -3.28731e-10 0 -2.6563e-12 -1.89709e-12 0 0 0 0)
(-1.6263e-13 7.45872e-11 0 -2.52077e-12 -4.0091e-13 0 0 0 0)
(4.06576e-13 -2.0292e-11 0 -1.76183e-12 -1.81877e-13 0 0 0 0)
(-2.71051e-14 2.83148e-12 0 -1.27394e-12 5.50999e-14 0 0 0 0)
(-8.13152e-14 -2.17393e-12 0 -8.94467e-13 1.28223e-13 0 0 0 0)
(-1.35525e-13 -6.24347e-13 0 -5.96311e-13 1.40294e-13 0 0 0 0)
(-1.89735e-13 -7.12946e-13 0 -4.06576e-13 1.46914e-13 0 0 0 0)
(-1.35525e-13 -4.95011e-13 0 -2.71051e-13 1.39048e-13 0 0 0 0)
(-1.0842e-13 -4.15605e-13 0 -1.6263e-13 1.11591e-13 0 0 0 0)
(-1.35525e-13 -3.49363e-13 0 -8.13152e-14 9.57321e-14 0 0 0 0)
(-2.71051e-14 -2.92059e-13 0 -2.71051e-14 7.32699e-14 0 0 0 0)
(-2.71051e-14 -2.42297e-13 0 -2.71051e-14 3.79182e-14 0 0 0 0)
(0 -2.13525e-13 0 5.42101e-14 1.42446e-14 0 0 0 0)
(6.15862e-09 -1.47462e-06 0 4.44986e-09 -9.45501e-09 0 0 0 0)
(-6.99275e-09 1.82425e-06 0 -9.21518e-10 2.30123e-09 0 0 0 0)
(1.24201e-09 -4.32546e-07 0 3.73237e-10 -5.64085e-10 0 0 0 0)
(-5.00414e-10 1.02598e-07 0 -8.13694e-11 1.26757e-10 0 0 0 0)
(1.02132e-10 -2.43303e-08 0 2.37711e-11 -3.82973e-11 0 0 0 0)
(-2.25514e-11 5.76678e-09 0 -9.1073e-12 3.66326e-12 0 0 0 0)
(1.02457e-11 -1.37067e-09 0 -2.98156e-13 -4.67802e-12 0 0 0 0)
(1.35525e-13 3.22073e-10 0 -2.54788e-12 -1.28112e-12 0 0 0 0)
(1.54499e-12 -7.89236e-11 0 -1.54499e-12 -1.1588e-12 0 0 0 0)
(4.87891e-13 1.65942e-11 0 -1.35525e-12 -5.78268e-13 0 0 0 0)
(4.06576e-13 -5.63248e-12 0 -1.00289e-12 -3.22999e-13 0 0 0 0)
(1.6263e-13 -1.50437e-14 0 -7.86047e-13 -1.57291e-13 0 0 0 0)
(1.0842e-13 -1.059e-12 0 -5.42101e-13 -6.46588e-14 0 0 0 0)
(-2.71051e-14 -5.68397e-13 0 -4.06576e-13 -1.25442e-14 0 0 0 0)
(0 -5.19368e-13 0 -2.1684e-13 1.74128e-14 0 0 0 0)
(0 -4.15877e-13 0 -1.6263e-13 3.08879e-14 0 0 0 0)
(-2.71051e-14 -3.62336e-13 0 -8.13152e-14 3.21915e-14 0 0 0 0)
(-2.71051e-14 -3.08222e-13 0 0 3.26581e-14 0 0 0 0)
(0 -2.54369e-13 0 -2.71051e-14 2.14857e-14 0 0 0 0)
(-5.42101e-14 -2.38879e-13 0 -2.71051e-14 6.19929e-15 0 0 0 0)
(-4.6139e-09 1.47106e-06 0 -4.21028e-09 8.36472e-09 0 0 0 0)
(5.16362e-09 -1.81983e-06 0 8.59339e-10 -1.951e-09 0 0 0 0)
(-8.72918e-10 4.31511e-07 0 -3.35344e-10 4.59427e-10 0 0 0 0)
(3.59386e-10 -1.02347e-07 0 7.65176e-11 -1.12981e-10 0 0 0 0)
(-6.07966e-11 2.42702e-08 0 -2.19009e-11 2.08954e-11 0 0 0 0)
(2.05185e-11 -5.75635e-09 0 5.63785e-12 -9.39667e-12 0 0 0 0)
(-2.1684e-12 1.36343e-09 0 -2.76472e-12 -1.23387e-12 0 0 0 0)
(2.79182e-12 -3.25211e-10 0 -8.40257e-13 -2.15927e-12 0 0 0 0)
(1.0842e-12 7.529e-11 0 -1.30104e-12 -1.19754e-12 0 0 0 0)
(8.67362e-13 -1.94562e-11 0 -9.75782e-13 -8.67046e-13 0 0 0 0)
(5.96311e-13 3.25246e-12 0 -8.40257e-13 -5.47403e-13 0 0 0 0)
(3.79471e-13 -1.91559e-12 0 -5.69206e-13 -3.68042e-13 0 0 0 0)
(1.89735e-13 -4.79601e-13 0 -5.42101e-13 -2.19081e-13 0 0 0 0)
(1.6263e-13 -6.30875e-13 0 -3.52366e-13 -1.37796e-13 0 0 0 0)
(1.0842e-13 -4.51579e-13 0 -2.71051e-13 -9.01336e-14 0 0 0 0)
(0 -4.00826e-13 0 -2.1684e-13 -4.70792e-14 0 0 0 0)
(2.71051e-14 -3.47592e-13 0 -1.0842e-13 -3.16889e-14 0 0 0 0)
(0 -3.02765e-13 0 -1.0842e-13 -5.01545e-15 0 0 0 0)
(0 -2.68756e-13 0 0 -5.77874e-15 0 0 0 0)
(5.42101e-14 -2.4121e-13 0 -2.71051e-14 -1.62501e-14 0 0 0 0)
(2.80768e-09 -1.4682e-06 0 3.6121e-09 -7.04656e-09 0 0 0 0)
(-3.11784e-09 1.81634e-06 0 -7.21645e-10 1.58933e-09 0 0 0 0)
(4.59214e-10 -4.30708e-07 0 2.83519e-10 -3.7932e-10 0 0 0 0)
(-1.86971e-10 1.02159e-07 0 -6.1935e-11 8.23118e-11 0 0 0 0)
(3.12521e-11 -2.42267e-08 0 1.83772e-11 -2.2878e-11 0 0 0 0)
(-3.49655e-12 5.74465e-09 0 -5.63785e-12 1.64956e-12 0 0 0 0)
(3.84892e-12 -1.36344e-09 0 6.77626e-13 -3.34551e-12 0 0 0 0)
(1.65341e-12 3.22109e-10 0 -1.13841e-12 -1.57303e-12 0 0 0 0)
(1.38236e-12 -7.76314e-11 0 -6.23416e-13 -1.39342e-12 0 0 0 0)
(9.75782e-13 1.72444e-11 0 -7.86047e-13 -9.66089e-13 0 0 0 0)
(7.04731e-13 -5.13348e-12 0 -5.96311e-13 -7.23178e-13 0 0 0 0)
(5.42101e-13 3.13278e-13 0 -4.87891e-13 -5.04165e-13 0 0 0 0)
(3.52366e-13 -8.28759e-13 0 -3.52366e-13 -3.39752e-13 0 0 0 0)
(2.1684e-13 -4.39449e-13 0 -2.71051e-13 -2.38741e-13 0 0 0 0)
(1.35525e-13 -4.28651e-13 0 -1.6263e-13 -1.80397e-13 0 0 0 0)
(1.6263e-13 -3.57432e-13 0 -8.13152e-14 -1.31728e-13 0 0 0 0)
(1.0842e-13 -3.20272e-13 0 -5.42101e-14 -8.67099e-14 0 0 0 0)
(8.13152e-14 -2.82312e-13 0 0 -5.66984e-14 0 0 0 0)
(2.71051e-14 -2.65604e-13 0 0 -2.64915e-14 0 0 0 0)
(-2.71051e-14 -2.1685e-13 0 2.71051e-14 -1.2493e-14 0 0 0 0)
(-1.72342e-09 1.46561e-06 0 -2.68885e-09 6.02179e-09 0 0 0 0)
(1.83501e-09 -1.81317e-06 0 5.37331e-10 -1.34322e-09 0 0 0 0)
(-2.13235e-10 4.30004e-07 0 -2.00659e-10 3.13662e-10 0 0 0 0)
(9.42714e-11 -1.01991e-07 0 4.7732e-11 -7.41567e-11 0 0 0 0)
(-4.47233e-12 2.41895e-08 0 -1.24412e-11 1.35039e-11 0 0 0 0)
(2.81893e-12 -5.73682e-09 0 3.90313e-12 -6.16385e-12 0 0 0 0)
(2.27682e-12 1.3602e-09 0 -1.21973e-12 -1.26679e-12 0 0 0 0)
(1.40946e-12 -3.23259e-10 0 -1.0842e-13 -1.90532e-12 0 0 0 0)
(1.46367e-12 7.5897e-11 0 -5.14996e-13 -1.32535e-12 0 0 0 0)
(1.00289e-12 -1.8786e-11 0 -3.52366e-13 -1.07433e-12 0 0 0 0)
(8.67362e-13 3.71439e-12 0 -3.52366e-13 -8.15198e-13 0 0 0 0)
(5.96311e-13 -1.53216e-12 0 -3.25261e-13 -5.88367e-13 0 0 0 0)
(4.33681e-13 -2.14177e-13 0 -1.6263e-13 -4.25519e-13 0 0 0 0)
(3.52366e-13 -4.71519e-13 0 -8.13152e-14 -3.15924e-13 0 0 0 0)
(2.71051e-13 -3.44566e-13 0 -1.0842e-13 -2.30719e-13 0 0 0 0)
(1.35525e-13 -3.07139e-13 0 -2.71051e-14 -1.66934e-13 0 0 0 0)
(8.13152e-14 -2.72563e-13 0 -8.13152e-14 -1.17838e-13 0 0 0 0)
(8.13152e-14 -2.42547e-13 0 -2.71051e-14 -8.61177e-14 0 0 0 0)
(0 -2.2455e-13 0 -5.42101e-14 -4.25506e-14 0 0 0 0)
(5.42101e-14 -2.02226e-13 0 -2.71051e-14 -8.76064e-15 0 0 0 0)
(6.56159e-10 -1.46352e-06 0 1.96718e-09 -5.12503e-09 0 0 0 0)
(-6.29623e-10 1.81063e-06 0 -3.96981e-10 1.14621e-09 0 0 0 0)
(-3.04119e-11 -4.29439e-07 0 1.46205e-10 -2.71135e-10 0 0 0 0)
(1.24683e-12 1.01859e-07 0 -3.4586e-11 5.94817e-11 0 0 0 0)
(-1.25496e-11 -2.41587e-08 0 1.02186e-11 -1.62178e-11 0 0 0 0)
(7.72494e-12 5.72988e-09 0 -2.6563e-12 1.12726e-12 0 0 0 0)
(-1.35525e-13 -1.35918e-09 0 8.13152e-13 -2.64787e-12 0 0 0 0)
(2.35814e-12 3.22051e-10 0 -2.43945e-13 -1.44827e-12 0 0 0 0)
(1.0571e-12 -7.68004e-11 0 -5.42101e-14 -1.37517e-12 0 0 0 0)
(1.11131e-12 1.77545e-11 0 -8.13152e-14 -1.06919e-12 0 0 0 0)
(8.40257e-13 -4.64751e-12 0 -1.35525e-13 -8.3644e-13 0 0 0 0)
(6.77626e-13 7.02956e-13 0 -1.6263e-13 -6.41688e-13 0 0 0 0)
(5.14996e-13 -5.56316e-13 0 -1.0842e-13 -4.8957e-13 0 0 0 0)
(3.25261e-13 -2.44649e-13 0 -5.42101e-14 -3.4899e-13 0 0 0 0)
(2.71051e-13 -2.79661e-13 0 -2.71051e-14 -2.39477e-13 0 0 0 0)
(1.35525e-13 -2.44551e-13 0 -5.42101e-14 -1.67833e-13 0 0 0 0)
(1.0842e-13 -2.39455e-13 0 -5.42101e-14 -1.25337e-13 0 0 0 0)
(1.0842e-13 -2.07025e-13 0 0 -9.33768e-14 0 0 0 0)
(2.71051e-14 -1.88247e-13 0 -2.71051e-14 -5.71895e-14 0 0 0 0)
(5.42101e-14 -1.65539e-13 0 2.71051e-14 -1.742e-14 0 0 0 0)
(-1.53252e-10 1.46163e-06 0 -1.33118e-09 4.62599e-09 0 0 0 0)
(1.40404e-11 -1.80831e-06 0 2.76417e-10 -1.05575e-09 0 0 0 0)
(1.49186e-10 4.28918e-07 0 -9.7524e-11 2.45522e-10 0 0 0 0)
(-4.17147e-11 -1.01736e-07 0 2.57498e-11 -5.92749e-11 0 0 0 0)
(2.73761e-11 2.41312e-08 0 -6.47811e-12 1.11767e-11 0 0 0 0)
(-6.50521e-12 -5.72325e-09 0 2.43945e-12 -5.03355e-12 0 0 0 0)
(4.68917e-12 1.35763e-09 0 -4.06576e-13 -1.07469e-12 0 0 0 0)
(5.42101e-13 -3.21987e-10 0 2.43945e-13 -1.71669e-12 0 0 0 0)
(1.65341e-12 7.6276e-11 0 0 -1.24546e-12 0 0 0 0)
(9.21572e-13 -1.82472e-11 0 0 -1.03668e-12 0 0 0 0)
(7.58942e-13 4.14188e-12 0 0 -8.1156e-13 0 0 0 0)
(6.50521e-13 -1.18529e-12 0 0 -6.52525e-13 0 0 0 0)
(5.96311e-13 7.85213e-14 0 -8.13152e-14 -5.13732e-13 0 0 0 0)
(3.52366e-13 -2.21426e-13 0 -5.42101e-14 -3.6997e-13 0 0 0 0)
(2.71051e-13 -1.63408e-13 0 -5.42101e-14 -2.56406e-13 0 0 0 0)
(1.35525e-13 -1.92999e-13 0 0 -1.92378e-13 0 0 0 0)
(1.0842e-13 -1.98107e-13 0 0 -1.37036e-13 0 0 0 0)
(1.35525e-13 -1.74399e-13 0 0 -8.87195e-14 0 0 0 0)
(5.42101e-14 -1.48594e-13 0 2.71051e-14 -5.18538e-14 0 0 0 0)
(0 -1.27616e-13 0 0 -1.2933e-14 0 0 0 0)
(-3.98607e-10 -1.45995e-06 0 9.24581e-10 -4.24356e-09 0 0 0 0)
(6.04036e-10 1.80625e-06 0 -1.96403e-10 9.83233e-10 0 0 0 0)
(-2.81107e-10 -4.28442e-07 0 7.02834e-11 -2.32733e-10 0 0 0 0)
(9.23198e-11 1.01625e-07 0 -1.78893e-11 5.26457e-11 0 0 0 0)
(-3.58329e-11 -2.41045e-08 0 5.47522e-12 -1.46064e-11 0 0 0 0)
(1.37694e-11 5.71763e-09 0 -1.16552e-12 1.10352e-12 0 0 0 0)
(-2.30393e-12 -1.35586e-09 0 8.13152e-13 -2.38664e-12 0 0 0 0)
(2.73761e-12 3.2188e-10 0 2.43945e-13 -1.32493e-12 0 0 0 0)
(8.13152e-13 -7.61204e-11 0 2.71051e-13 -1.27211e-12 0 0 0 0)
(1.0571e-12 1.81884e-11 0 1.6263e-13 -9.90408e-13 0 0 0 0)
(8.13152e-13 -4.26335e-12 0 1.0842e-13 -7.94665e-13 0 0 0 0)
(6.23416e-13 1.00078e-12 0 8.13152e-14 -6.17691e-13 0 0 0 0)
(4.87891e-13 -2.73761e-13 0 5.42101e-14 -4.83515e-13 0 0 0 0)
(4.06576e-13 1.26768e-14 0 -2.71051e-14 -3.84737e-13 0 0 0 0)
(2.43945e-13 -1.02069e-13 0 0 -2.97303e-13 0 0 0 0)
(1.89735e-13 -1.25181e-13 0 0 -2.08813e-13 0 0 0 0)
(1.35525e-13 -1.35797e-13 0 0 -1.39081e-13 0 0 0 0)
(1.35525e-13 -1.21842e-13 0 -5.42101e-14 -8.30741e-14 0 0 0 0)
(8.13152e-14 -1.12461e-13 0 0 -5.04796e-14 0 0 0 0)
(0 -1.00752e-13 0 -2.71051e-14 -1.25565e-14 0 0 0 0)
(5.74952e-10 1.45837e-06 0 -6.21817e-10 4.0858e-09 0 0 0 0)
(-8.40257e-10 -1.8043e-06 0 1.31432e-10 -9.56076e-10 0 0 0 0)
(3.277e-10 4.27987e-07 0 -4.83554e-11 2.24137e-10 0 0 0 0)
(-1.0655e-10 -1.01518e-07 0 1.21973e-11 -5.5086e-11 0 0 0 0)
(4.40999e-11 2.40796e-08 0 -3.11708e-12 1.03111e-11 0 0 0 0)
(-1.11944e-11 -5.71103e-09 0 1.46367e-12 -4.86564e-12 0 0 0 0)
(6.09864e-12 1.3552e-09 0 2.43945e-13 -1.04599e-12 0 0 0 0)
(0 -3.20872e-10 0 6.23416e-13 -1.57504e-12 0 0 0 0)
(1.5992e-12 7.66106e-11 0 4.33681e-13 -1.13152e-12 0 0 0 0)
(7.86047e-13 -1.77698e-11 0 4.60786e-13 -9.31242e-13 0 0 0 0)
(7.31836e-13 4.5146e-12 0 3.52366e-13 -7.1612e-13 0 0 0 0)
(5.14996e-13 -8.74138e-13 0 2.71051e-13 -5.51895e-13 0 0 0 0)
(4.60786e-13 3.11476e-13 0 2.71051e-13 -4.26614e-13 0 0 0 0)
(2.71051e-13 -3.5214e-14 0 1.35525e-13 -3.421e-13 0 0 0 0)
(3.52366e-13 1.25159e-14 0 8.13152e-14 -2.82546e-13 0 0 0 0)
(1.6263e-13 -3.47776e-14 0 8.13152e-14 -1.93625e-13 0 0 0 0)
(8.13152e-14 -7.23684e-14 0 8.13152e-14 -1.25325e-13 0 0 0 0)
(1.35525e-13 -8.57971e-14 0 8.13152e-14 -8.66197e-14 0 0 0 0)
(5.42101e-14 -7.8076e-14 0 5.42101e-14 -4.1215e-14 0 0 0 0)
(0 -6.45802e-14 0 0 -9.85417e-15 0 0 0 0)
(-8.88964e-10 -1.45682e-06 0 3.43421e-10 -3.88235e-09 0 0 0 0)
(1.17747e-09 1.80239e-06 0 -6.61905e-11 9.2034e-10 0 0 0 0)
(-4.00315e-10 -4.27541e-07 0 2.34188e-11 -2.20443e-10 0 0 0 0)
(1.37531e-10 1.01411e-07 0 -5.93601e-12 4.90864e-11 0 0 0 0)
(-4.65936e-11 -2.40543e-08 0 1.6263e-12 -1.47027e-11 0 0 0 0)
(1.71846e-11 5.70627e-09 0 2.71051e-13 6.35111e-13 0 0 0 0)
(-3.14419e-12 -1.35257e-09 0 9.48677e-13 -2.44288e-12 0 0 0 0)
(2.92735e-12 3.21795e-10 0 7.04731e-13 -1.24733e-12 0 0 0 0)
(6.23416e-13 -7.54766e-11 0 7.04731e-13 -1.11998e-12 0 0 0 0)
(9.75782e-13 1.86038e-11 0 4.87891e-13 -8.10864e-13 0 0 0 0)
(6.23416e-13 -3.88401e-12 0 4.87891e-13 -6.21386e-13 0 0 0 0)
(4.87891e-13 1.29029e-12 0 3.52366e-13 -4.67656e-13 0 0 0 0)
(3.52366e-13 -6.39658e-14 0 1.6263e-13 -3.51595e-13 0 0 0 0)
(2.1684e-13 1.56746e-13 0 1.6263e-13 -2.62499e-13 0 0 0 0)
(2.71051e-13 4.64051e-14 0 1.0842e-13 -1.93818e-13 0 0 0 0)
(1.35525e-13 3.20397e-14 0 0 -1.5646e-13 0 0 0 0)
(8.13152e-14 -2.87912e-14 0 0 -1.12385e-13 0 0 0 0)
(1.35525e-13 -3.77326e-14 0 -2.71051e-14 -6.57732e-14 0 0 0 0)
(0 -3.5695e-14 0 0 -2.45735e-14 0 0 0 0)
(0 -4.96833e-14 0 0 -7.71246e-15 0 0 0 0)
(8.52129e-10 1.45541e-06 0 -2.44162e-10 3.77549e-09 0 0 0 0)
(-1.16023e-09 -1.80064e-06 0 2.79182e-11 -8.99044e-10 0 0 0 0)
(3.87982e-10 4.27116e-07 0 -1.74557e-11 2.08246e-10 0 0 0 0)
(-1.28315e-10 -1.01312e-07 0 1.24683e-12 -5.40891e-11 0 0 0 0)
(5.03612e-11 2.40312e-08 0 2.43945e-13 8.30779e-12 0 0 0 0)
(-1.19533e-11 -5.69877e-09 0 1.24683e-12 -5.25279e-12 0 0 0 0)
(6.53232e-12 1.35332e-09 0 1.27394e-12 -1.21069e-12 0 0 0 0)
(-2.43945e-13 -3.19549e-10 0 1.19262e-12 -1.42749e-12 0 0 0 0)
(1.38236e-12 7.7047e-11 0 1.02999e-12 -8.81664e-13 0 0 0 0)
(5.42101e-13 -1.72712e-11 0 7.04731e-13 -6.58666e-13 0 0 0 0)
(5.69206e-13 4.85781e-12 0 4.87891e-13 -4.66768e-13 0 0 0 0)
(2.71051e-13 -6.04347e-13 0 2.71051e-13 -3.41141e-13 0 0 0 0)
(2.98156e-13 5.16633e-13 0 2.1684e-13 -2.62454e-13 0 0 0 0)
(2.43945e-13 1.22563e-13 0 1.35525e-13 -2.01399e-13 0 0 0 0)
(8.13152e-14 1.18554e-13 0 8.13152e-14 -1.4316e-13 0 0 0 0)
(1.35525e-13 4.66552e-14 0 0 -1.18884e-13 0 0 0 0)
(8.13152e-14 1.83186e-14 0 1.0842e-13 -8.36364e-14 0 0 0 0)
(5.42101e-14 2.01423e-15 0 -5.42101e-14 -4.72668e-14 0 0 0 0)
(8.13152e-14 -2.00153e-14 0 0 -4.05919e-14 0 0 0 0)
(0 -3.22943e-14 0 0 -1.59932e-14 0 0 0 0)
(-1.10524e-09 -1.45395e-06 0 -5.14996e-11 -3.53035e-09 0 0 0 0)
(1.40423e-09 1.79882e-06 0 3.88144e-11 8.44184e-10 0 0 0 0)
(-4.2704e-10 -4.26696e-07 0 -1.38507e-11 -2.10622e-10 0 0 0 0)
(1.55231e-10 1.01211e-07 0 6.01732e-12 4.21597e-11 0 0 0 0)
(-4.65936e-11 -2.40054e-08 0 -4.60786e-13 -1.64818e-11 0 0 0 0)
(1.82417e-11 5.69675e-09 0 2.92735e-12 -6.25692e-14 0 0 0 0)
(-3.1984e-12 -1.34874e-09 0 1.84314e-12 -2.43926e-12 0 0 0 0)
(2.62919e-12 3.22124e-10 0 1.81604e-12 -8.12997e-13 0 0 0 0)
(1.89735e-13 -7.47078e-11 0 1.24683e-12 -6.23396e-13 0 0 0 0)
(4.87891e-13 1.90187e-11 0 1.00289e-12 -3.52865e-13 0 0 0 0)
(1.6263e-13 -3.56648e-12 0 6.50521e-13 -2.50696e-13 0 0 0 0)
(1.89735e-13 1.4946e-12 0 5.42101e-13 -1.86248e-13 0 0 0 0)
(1.6263e-13 7.5776e-14 0 3.25261e-13 -1.53318e-13 0 0 0 0)
(1.89735e-13 2.7604e-13 0 2.1684e-13 -1.24853e-13 0 0 0 0)
(8.13152e-14 1.2892e-13 0 1.6263e-13 -1.0253e-13 0 0 0 0)
(1.35525e-13 9.15631e-14 0 1.89735e-13 -7.71111e-14 0 0 0 0)
(0 4.28262e-14 0 2.71051e-14 -5.7078e-14 0 0 0 0)
(8.13152e-14 5.31187e-15 0 5.42101e-14 -4.68566e-14 0 0 0 0)
(5.42101e-14 -4.42138e-15 0 0 -3.96361e-14 0 0 0 0)
(0 6.90189e-15 0 0 -1.27789e-14 0 0 0 0)
(8.39498e-10 1.45272e-06 0 -2.26354e-10 3.35853e-09 0 0 0 0)
(-1.12261e-09 -1.79732e-06 0 -8.34836e-12 -8.09399e-10 0 0 0 0)
(3.55158e-10 4.26314e-07 0 -1.09775e-11 1.61049e-10 0 0 0 0)
(-1.14898e-10 -1.01118e-07 0 1.02999e-12 -5.20688e-11 0 0 0 0)
(4.72441e-11 2.39889e-08 0 4.8518e-12 2.86598e-12 0 0 0 0)
(-9.73071e-12 -5.68473e-09 0 4.14707e-12 -4.28636e-12 0 0 0 0)
(5.42101e-12 1.35257e-09 0 3.2255e-12 -7.3578e-13 0 0 0 0)
(-7.04731e-13 -3.17733e-10 0 2.30393e-12 -3.82956e-13 0 0 0 0)
(5.42101e-13 7.75072e-11 0 1.57209e-12 -7.81682e-14 0 0 0 0)
(-1.0842e-13 -1.68985e-11 0 1.11131e-12 2.0374e-14 0 0 0 0)
(5.42101e-14 5.02442e-12 0 7.31836e-13 4.24352e-15 0 0 0 0)
(0 -5.06969e-13 0 5.42101e-13 -1.0628e-14 0 0 0 0)
(5.42101e-14 5.78028e-13 0 4.06576e-13 -1.01702e-14 0 0 0 0)
(0 1.73351e-13 0 2.71051e-13 -1.51276e-14 0 0 0 0)
(0 1.66296e-13 0 1.35525e-13 -2.63456e-14 0 0 0 0)
(2.71051e-14 9.2107e-14 0 8.13152e-14 -1.97652e-14 0 0 0 0)
(5.42101e-14 4.85731e-14 0 0 -2.93922e-14 0 0 0 0)
(0 1.94561e-14 0 8.13152e-14 -2.60932e-14 0 0 0 0)
(0 1.40625e-14 0 0 -9.74417e-15 0 0 0 0)
(0 2.01208e-14 0 0 -4.78555e-16 0 0 0 0)
(-1.33994e-09 -1.4514e-06 0 -4.13732e-10 -2.82774e-09 0 0 0 0)
(1.61961e-09 1.79563e-06 0 1.03704e-10 6.34839e-10 0 0 0 0)
(-4.17662e-10 -4.25939e-07 0 -3.98444e-11 -2.38985e-10 0 0 0 0)
(1.71006e-10 1.01053e-07 0 3.59955e-11 5.08435e-11 0 0 0 0)
(-4.34494e-11 -2.39576e-08 0 2.1413e-12 -2.28693e-11 0 0 0 0)
(1.66967e-11 5.69315e-09 0 1.01644e-11 6.16721e-12 0 0 0 0)
(-5.06865e-12 -1.34484e-09 0 3.08998e-12 -1.29945e-12 0 0 0 0)
(1.00289e-12 3.22781e-10 0 3.11708e-12 1.37157e-12 0 0 0 0)
(-1.02999e-12 -7.43045e-11 0 1.54499e-12 4.40253e-13 0 0 0 0)
(-3.25261e-13 1.91011e-11 0 1.16552e-12 5.40845e-13 0 0 0 0)
(-3.79471e-13 -3.59748e-12 0 7.04731e-13 3.06829e-13 0 0 0 0)
(-1.89735e-13 1.48019e-12 0 4.87891e-13 2.08166e-13 0 0 0 0)
(-1.6263e-13 7.12765e-14 0 2.71051e-13 1.24627e-13 0 0 0 0)
(-5.42101e-14 2.59865e-13 0 1.89735e-13 7.71817e-14 0 0 0 0)
(-2.71051e-14 1.24282e-13 0 1.35525e-13 3.62955e-14 0 0 0 0)
(-2.71051e-14 8.85165e-14 0 5.42101e-14 1.8545e-14 0 0 0 0)
(-5.42101e-14 3.64982e-14 0 8.13152e-14 9.4432e-15 0 0 0 0)
(5.42101e-14 2.49599e-14 0 2.71051e-14 1.57374e-15 0 0 0 0)
(2.71051e-14 2.11933e-14 0 2.71051e-14 5.5272e-15 0 0 0 0)
(-2.71051e-14 1.71246e-14 0 0 1.52821e-15 0 0 0 0)
(5.2947e-10 1.45053e-06 0 -1.8406e-09 2.31914e-09 0 0 0 0)
(-7.4875e-10 -1.79473e-06 0 1.59448e-09 -4.19866e-10 0 0 0 0)
(2.87449e-10 4.2573e-07 0 -6.7684e-10 3.26935e-11 0 0 0 0)
(-7.28855e-11 -1.00902e-07 0 3.10705e-10 1.66633e-11 0 0 0 0)
(2.14401e-11 2.39443e-08 0 -8.00412e-11 -1.9441e-12 0 0 0 0)
(-8.78204e-12 -5.66316e-09 0 3.92481e-11 8.19345e-12 0 0 0 0)
(-1.68051e-12 1.34777e-09 0 -5.82759e-12 1.78138e-12 0 0 0 0)
(-2.27682e-12 -3.15994e-10 0 5.25838e-12 2.5182e-12 0 0 0 0)
(-1.38236e-12 7.66764e-11 0 3.52366e-13 1.21957e-12 0 0 0 0)
(-9.48677e-13 -1.70319e-11 0 1.02999e-12 9.48726e-13 0 0 0 0)
(-5.96311e-13 4.69174e-12 0 4.60786e-13 5.83307e-13 0 0 0 0)
(-3.79471e-13 -6.89171e-13 0 3.79471e-13 3.95389e-13 0 0 0 0)
(-2.98156e-13 4.47044e-13 0 2.1684e-13 2.41615e-13 0 0 0 0)
(-1.6263e-13 8.50199e-14 0 1.35525e-13 1.50138e-13 0 0 0 0)
(-1.0842e-13 1.0766e-13 0 1.0842e-13 8.76966e-14 0 0 0 0)
(-5.42101e-14 6.52548e-14 0 2.71051e-14 3.97778e-14 0 0 0 0)
(0 3.16018e-14 0 2.71051e-14 2.90282e-14 0 0 0 0)
(-2.71051e-14 1.55401e-14 0 -2.71051e-14 2.29515e-14 0 0 0 0)
(-2.71051e-14 1.40169e-14 0 -2.71051e-14 1.21008e-14 0 0 0 0)
(0 1.30654e-14 0 2.71051e-14 3.90062e-17 0 0 0 0)
(-1.58605e-09 -1.4495e-06 0 2.81405e-09 -1.23245e-09 0 0 0 0)
(2.78342e-09 1.79334e-06 0 -1.75746e-09 2.04759e-10 0 0 0 0)
(-1.70144e-09 -4.25502e-07 0 7.79433e-10 1.58865e-10 0 0 0 0)
(7.67751e-10 1.01018e-07 0 -3.43502e-10 -2.27731e-11 0 0 0 0)
(-3.14934e-10 -2.39661e-08 0 8.45136e-11 4.21439e-11 0 0 0 0)
(9.09375e-11 5.69688e-09 0 -5.00088e-11 -9.33587e-13 0 0 0 0)
(-3.90313e-11 -1.35052e-09 0 2.38524e-12 8.42616e-12 0 0 0 0)
(7.15573e-12 3.22219e-10 0 -9.29703e-12 1.81118e-12 0 0 0 0)
(-5.28549e-12 -7.58739e-11 0 -2.49366e-12 2.20043e-12 0 0 0 0)
(-1.89735e-13 1.84649e-11 0 -2.62919e-12 1.00868e-12 0 0 0 0)
(-1.02999e-12 -4.15082e-12 0 -1.35525e-12 7.67487e-13 0 0 0 0)
(-4.60786e-13 1.1385e-12 0 -9.75782e-13 4.67756e-13 0 0 0 0)
(-3.79471e-13 -1.73975e-13 0 -5.42101e-13 3.18159e-13 0 0 0 0)
(-1.6263e-13 1.05947e-13 0 -3.25261e-13 1.94687e-13 0 0 0 0)
(-1.0842e-13 1.39224e-14 0 -1.89735e-13 1.27193e-13 0 0 0 0)
(-1.35525e-13 2.98481e-14 0 -8.13152e-14 7.31044e-14 0 0 0 0)
(-5.42101e-14 1.96718e-14 0 -5.42101e-14 3.20899e-14 0 0 0 0)
(0 8.03259e-15 0 0 2.18307e-14 0 0 0 0)
(2.71051e-14 -1.7192e-15 0 0 8.51716e-15 0 0 0 0)
(-2.71051e-14 4.98477e-15 0 -2.71051e-14 9.533e-15 0 0 0 0)
)
;

boundaryField
{
    movingWall
    {
        type            extrapolatedCalculated;
        value           nonuniform List<tensor> 
20
(
(-1.58605e-09 -1.4495e-06 0 1.45932e-08 7.60159e-06 0 0 0 0)
(2.78342e-09 1.79334e-06 0 -8.249e-09 -1.8036e-06 0 0 0 0)
(-1.70144e-09 -4.25502e-07 0 3.45954e-09 4.28229e-07 0 0 0 0)
(7.67751e-10 1.01018e-07 0 -1.44329e-09 -1.01587e-07 0 0 0 0)
(-3.14934e-10 -2.39661e-08 0 3.88578e-10 2.41554e-08 0 0 0 0)
(9.09375e-11 5.69688e-09 0 -1.83542e-10 -5.72272e-09 0 0 0 0)
(-3.90313e-11 -1.35052e-09 0 2.4869e-11 1.36787e-09 0 0 0 0)
(7.15573e-12 3.22219e-10 0 -2.74447e-11 -3.2065e-10 0 0 0 0)
(-5.28549e-12 -7.58739e-11 0 -3.73035e-12 7.8991e-11 0 0 0 0)
(-1.89735e-13 1.84649e-11 0 -6.39488e-12 -1.7154e-11 0 0 0 0)
(-1.02999e-12 -4.15082e-12 0 -2.93099e-12 5.13154e-12 0 0 0 0)
(-4.60786e-13 1.1385e-12 0 -2.17604e-12 -5.50701e-13 0 0 0 0)
(-3.79471e-13 -1.73975e-13 0 -1.15463e-12 5.7755e-13 0 0 0 0)
(-1.6263e-13 1.05947e-13 0 -7.54952e-13 1.45198e-13 0 0 0 0)
(-1.0842e-13 1.39224e-14 0 -4.88498e-13 1.53764e-13 0 0 0 0)
(-1.35525e-13 2.98481e-14 0 -1.77636e-13 8.95083e-14 0 0 0 0)
(-5.42101e-14 1.96718e-14 0 -1.33227e-13 3.43717e-14 0 0 0 0)
(0 8.03259e-15 0 8.88178e-14 1.08209e-14 0 0 0 0)
(2.71051e-14 -1.7192e-15 0 0 2.24138e-15 0 0 0 0)
(-2.71051e-14 4.98477e-15 0 -8.88178e-14 1.76977e-14 0 0 0 0)
)
;
    }
    fixedWalls
    {
        type            extrapolatedCalculated;
        value           nonuniform List<tensor> 
60
(
(-1.28002e-08 7.8125e-06 0 1.78378e-09 6.90514e-10 0 0 0 0)
(1.99353e-08 -7.80974e-06 0 -7.66482e-09 -5.18791e-09 0 0 0 0)
(-4.34595e-08 7.79175e-06 0 5.72583e-09 9.10744e-09 0 0 0 0)
(4.28386e-08 -7.77331e-06 0 8.67145e-10 -1.01965e-08 0 0 0 0)
(-3.99909e-08 7.75096e-06 0 -3.19466e-09 1.03781e-08 0 0 0 0)
(3.006e-08 -7.7318e-06 0 4.44986e-09 -9.45501e-09 0 0 0 0)
(-2.21914e-08 7.71314e-06 0 -4.21028e-09 8.36472e-09 0 0 0 0)
(1.32188e-08 -7.69834e-06 0 3.6121e-09 -7.04656e-09 0 0 0 0)
(-7.74296e-09 7.68496e-06 0 -2.68885e-09 6.02179e-09 0 0 0 0)
(2.46341e-09 -7.67425e-06 0 1.96718e-09 -5.12503e-09 0 0 0 0)
(1.25766e-10 7.66445e-06 0 -1.33118e-09 4.62599e-09 0 0 0 0)
(-2.86144e-09 -7.65574e-06 0 9.24581e-10 -4.24356e-09 0 0 0 0)
(3.82423e-09 7.64748e-06 0 -6.21817e-10 4.0858e-09 0 0 0 0)
(-5.3487e-09 -7.6394e-06 0 3.43421e-10 -3.88235e-09 0 0 0 0)
(5.1978e-09 7.63195e-06 0 -2.44162e-10 3.77549e-09 0 0 0 0)
(-6.32534e-09 -7.6243e-06 0 -5.14996e-11 -3.53035e-09 0 0 0 0)
(4.99187e-09 7.61783e-06 0 -2.26354e-10 3.35853e-09 0 0 0 0)
(-7.23084e-09 -7.61087e-06 0 -4.13732e-10 -2.82774e-09 0 0 0 0)
(3.33698e-09 7.60652e-06 0 -1.8406e-09 2.31914e-09 0 0 0 0)
(-1.45932e-08 -7.60159e-06 0 2.81405e-09 -1.23245e-09 0 0 0 0)
(-4.44089e-14 -2.87101e-14 0 0 2.76153e-14 0 0 0 0)
(0 -8.1751e-14 0 0 2.58176e-14 0 0 0 0)
(0 -1.31981e-13 0 0 2.51239e-14 0 0 0 0)
(0 -1.82247e-13 0 0 1.71296e-14 0 0 0 0)
(0 -2.00499e-13 0 5.42101e-14 1.42446e-14 0 0 0 0)
(-1.33227e-13 -2.39225e-13 0 -2.71051e-14 6.19929e-15 0 0 0 0)
(8.88178e-14 -2.25296e-13 0 -2.71051e-14 -1.62501e-14 0 0 0 0)
(-4.44089e-14 -1.74225e-13 0 2.71051e-14 -1.2493e-14 0 0 0 0)
(0 -1.75324e-13 0 -2.71051e-14 -8.76064e-15 0 0 0 0)
(0 -1.39182e-13 0 2.71051e-14 -1.742e-14 0 0 0 0)
(-8.88178e-14 -1.05645e-13 0 0 -1.2933e-14 0 0 0 0)
(0 -8.74501e-14 0 -2.71051e-14 -1.25565e-14 0 0 0 0)
(0 -5.54183e-14 0 0 -9.85417e-15 0 0 0 0)
(0 -4.80334e-14 0 0 -7.71246e-15 0 0 0 0)
(0 -2.45685e-14 0 0 -1.59932e-14 0 0 0 0)
(0 1.59395e-14 0 0 -1.27789e-14 0 0 0 0)
(0 2.65472e-14 0 0 -4.78555e-16 0 0 0 0)
(-4.44089e-14 1.78537e-14 0 0 1.52821e-15 0 0 0 0)
(0 2.04343e-14 0 2.71051e-14 3.90062e-17 0 0 0 0)
(-8.88178e-14 1.76977e-14 0 -2.71051e-14 9.533e-15 0 0 0 0)
(-1.17289e-09 1.48938e-06 0 -1.28002e-08 7.8125e-06 0 0 0 0)
(2.4256e-09 -1.84291e-06 0 8.10867e-09 -1.85499e-06 0 0 0 0)
(-1.64151e-09 4.37603e-07 0 -3.09788e-09 4.40852e-07 0 0 0 0)
(6.9931e-10 -1.03984e-07 0 1.54268e-09 -1.04578e-07 0 0 0 0)
(-3.29218e-10 2.46717e-08 0 -3.00648e-10 2.49173e-08 0 0 0 0)
(7.65176e-11 -5.87508e-09 0 2.25908e-10 -5.8912e-09 0 0 0 0)
(-4.46691e-11 1.39088e-09 0 5.32907e-12 1.41696e-09 0 0 0 0)
(3.25261e-12 -3.33283e-10 0 4.72067e-11 -3.27687e-10 0 0 0 0)
(-7.53521e-12 7.79167e-11 0 1.83409e-11 8.383e-11 0 0 0 0)
(-1.95156e-12 -1.93153e-11 0 1.7053e-11 -1.60206e-11 0 0 0 0)
(-2.30393e-12 4.10128e-12 0 1.05693e-11 6.56886e-12 0 0 0 0)
(-1.35525e-12 -1.31583e-12 0 7.77156e-12 3.84512e-13 0 0 0 0)
(-1.0842e-12 7.63962e-14 0 5.19584e-12 1.30555e-12 0 0 0 0)
(-7.04731e-13 -1.92335e-13 0 3.55271e-12 6.90097e-13 0 0 0 0)
(-5.14996e-13 -8.24206e-14 0 2.30926e-12 5.36209e-13 0 0 0 0)
(-3.79471e-13 -6.86275e-14 0 1.5099e-12 3.60414e-13 0 0 0 0)
(-2.71051e-13 -4.15845e-14 0 7.99361e-13 2.61699e-13 0 0 0 0)
(-1.35525e-13 -4.02e-14 0 4.44089e-13 1.94077e-13 0 0 0 0)
(-1.0842e-13 -4.13416e-14 0 1.33227e-13 1.00899e-13 0 0 0 0)
(-5.42101e-14 -3.24023e-14 0 4.44089e-14 2.87101e-14 0 0 0 0)
)
;
    }
    frontAndBack
    {
        type            empty;
    }
}


// ************************************************************************* //
