/*--------------------------------*- C++ -*----------------------------------*\
| =========                 |                                                 |
| \\      /  F ield         | OpenFOAM: The Open Source CFD Toolbox           |
|  \\    /   O peration     | Version:  2506                                  |
|   \\  /    A nd           | Website:  www.openfoam.com                      |
|    \\/     M anipulation  |                                                 |
\*---------------------------------------------------------------------------*/
FoamFile
{
    version     2.0;
    format      ascii;
    arch        "LSB;label=32;scalar=64";
    class       volVectorField;
    location    "4.375";
    object      LambVectorField;
}
// * * * * * * * * * * * * * * * * * * * * * * * * * * * * * * * * * * * * * //

dimensions      [0 1 -2 0 0 0 0];

internalField   nonuniform List<vector> 
400
(
(-2.90546e-14 -1.48759e-06 0)
(-8.55097e-15 1.84388e-06 -0)
(-4.82731e-16 -4.37999e-07 0)
(-2.72707e-17 1.04308e-07 -0)
(-1.53932e-18 -2.47109e-08 0)
(-8.74731e-20 5.93924e-09 -0)
(-4.88634e-21 -1.37939e-09 0)
(-2.87909e-22 3.51443e-10 -0)
(-1.43923e-23 -6.86739e-11 0)
(-1.07649e-24 2.68776e-11 -0)
(1.45508e-26 8.86048e-13 0)
(4.73027e-27 4.9208e-12 0)
(7.71273e-27 2.36306e-12 0)
(3.23112e-27 1.87285e-12 0)
(1.60022e-27 1.19373e-12 0)
(6.96824e-28 7.73359e-13 0)
(2.57741e-28 3.9395e-13 0)
(1.11563e-28 2.29935e-13 0)
(2.41027e-29 9.55517e-14 0)
(2.32568e-30 3.24023e-14 0)
(-2.89124e-14 1.48084e-06 -0)
(-8.54756e-15 -1.84241e-06 0)
(-4.81153e-16 4.37686e-07 -0)
(-2.7196e-17 -1.03972e-07 0)
(-1.52423e-18 2.46994e-08 -0)
(-8.69169e-20 -5.86709e-09 0)
(-4.75168e-21 1.39398e-09 -0)
(-2.88192e-22 -3.30968e-10 0)
(-1.30395e-23 7.8681e-11 -0)
(-1.24908e-24 -1.87554e-11 0)
(1.51338e-26 4.45493e-12 0)
(-1.22452e-26 -9.54172e-13 0)
(2.40665e-27 3.58952e-13 0)
(1.01338e-28 1.85971e-14 0)
(4.00761e-28 1.05237e-13 0)
(2.13531e-28 7.70745e-14 0)
(1.15738e-28 5.92544e-14 0)
(9.13689e-29 6.69492e-14 0)
(1.0616e-28 1.43142e-13 0)
(1.93344e-29 9.46016e-14 0)
(-2.88258e-14 -1.47981e-06 0)
(-8.49494e-15 1.83715e-06 -0)
(-4.78578e-16 -4.35968e-07 0)
(-2.6908e-17 1.03453e-07 -0)
(-1.52324e-18 -2.45487e-08 0)
(-8.46297e-20 5.82563e-09 -0)
(-4.94519e-21 -1.38212e-09 0)
(-2.51032e-22 3.28272e-10 -0)
(-1.8524e-23 -7.7549e-11 0)
(-3.2183e-25 1.87785e-11 -0)
(-1.33803e-25 -4.16709e-12 0)
(1.54044e-26 1.22194e-12 0)
(-3.66368e-28 -3.11579e-14 0)
(2.14762e-27 2.67144e-13 0)
(1.04855e-27 1.7174e-13 0)
(9.98719e-28 2.25728e-13 0)
(7.68799e-28 2.53309e-13 0)
(3.13826e-28 1.65927e-13 0)
(1.72488e-28 1.5614e-13 0)
(4.73366e-29 1.43465e-13 0)
(-2.88228e-14 1.48317e-06 -0)
(-8.45635e-15 -1.83425e-06 0)
(-4.75834e-16 4.35171e-07 -0)
(-2.6802e-17 -1.03238e-07 0)
(-1.50303e-18 2.44919e-08 -0)
(-8.55405e-20 -5.81015e-09 0)
(-4.64568e-21 1.37859e-09 -0)
(-2.89904e-22 -3.26807e-10 0)
(-1.14448e-23 7.78199e-11 -0)
(-1.46408e-24 -1.8144e-11 0)
(6.64443e-26 4.64154e-12 0)
(-1.68906e-26 -7.94229e-13 0)
(6.76939e-27 5.08489e-13 0)
(1.9687e-27 1.8768e-13 0)
(1.62755e-27 2.12995e-13 0)
(1.18594e-27 2.09931e-13 0)
(9.5032e-28 2.42699e-13 0)
(5.37951e-28 2.23303e-13 0)
(2.37478e-28 1.68239e-13 0)
(8.50711e-29 1.86716e-13 0)
(-2.87059e-14 -1.48141e-06 0)
(-8.40669e-15 1.82944e-06 -0)
(-4.73087e-16 -4.33963e-07 0)
(-2.65957e-17 1.02935e-07 -0)
(-1.4998e-18 -2.44157e-08 0)
(-8.36327e-20 5.79163e-09 -0)
(-4.84523e-21 -1.37344e-09 0)
(-2.467e-22 3.26074e-10 -0)
(-1.85444e-23 -7.71079e-11 0)
(-1.98336e-25 1.85302e-11 -0)
(-1.54279e-25 -4.10542e-12 0)
(2.25331e-26 1.27946e-12 0)
(4.44097e-28 2.80363e-14 0)
(3.48281e-27 3.0637e-13 0)
(1.95084e-27 2.23961e-13 0)
(1.62355e-27 2.52974e-13 0)
(1.22085e-27 2.68047e-13 0)
(7.74783e-28 2.64954e-13 0)
(3.51625e-28 2.15192e-13 0)
(1.34202e-28 2.67735e-13 0)
(-2.85896e-14 1.47907e-06 -0)
(-8.36536e-15 -1.82517e-06 0)
(-4.70591e-16 4.32919e-07 -0)
(-2.64787e-17 -1.02679e-07 0)
(-1.48656e-18 2.43541e-08 -0)
(-8.41826e-20 -5.77589e-09 0)
(-4.62064e-21 1.37038e-09 -0)
(-2.81807e-22 -3.24621e-10 0)
(-1.16901e-23 7.73786e-11 -0)
(-1.41574e-24 -1.79495e-11 0)
(6.88242e-26 4.6296e-12 0)
(-1.73852e-26 -7.71003e-13 0)
(7.60659e-27 5.16903e-13 0)
(1.93518e-27 1.61821e-13 0)
(2.73234e-27 3.02528e-13 0)
(1.71324e-27 2.53247e-13 0)
(1.3694e-27 2.8102e-13 0)
(9.68359e-28 3.08222e-13 0)
(4.06969e-28 2.27264e-13 0)
(1.26654e-28 2.11774e-13 0)
(-2.84475e-14 -1.47527e-06 0)
(-8.32461e-15 1.82069e-06 -0)
(-4.68345e-16 -4.31847e-07 0)
(-2.63337e-17 1.02424e-07 -0)
(-1.4829e-18 -2.42921e-08 0)
(-8.29937e-20 5.76199e-09 -0)
(-4.75575e-21 -1.36619e-09 0)
(-2.49567e-22 3.24371e-10 -0)
(-1.75326e-23 -7.65911e-11 0)
(-3.0467e-25 1.84804e-11 -0)
(-1.40582e-25 -4.09272e-12 0)
(2.15939e-26 1.34638e-12 0)
(-9.49598e-28 -6.25002e-14 0)
(3.13114e-27 2.78509e-13 0)
(1.60396e-27 1.80529e-13 0)
(1.23762e-27 1.83986e-13 0)
(1.16633e-27 2.39172e-13 0)
(6.31776e-28 1.94345e-13 0)
(4.96893e-28 2.68756e-13 0)
(1.20593e-28 2.14105e-13 0)
(-2.83263e-14 1.47181e-06 -0)
(-8.29276e-15 -1.81706e-06 0)
(-4.66516e-16 4.30991e-07 -0)
(-2.62451e-17 -1.02221e-07 0)
(-1.47484e-18 2.42451e-08 -0)
(-8.32692e-20 -5.75029e-09 0)
(-4.61636e-21 1.36411e-09 -0)
(-2.73635e-22 -3.23248e-10 0)
(-1.25563e-23 7.7008e-11 -0)
(-1.26579e-24 -1.80304e-11 0)
(4.26135e-26 4.53717e-12 0)
(-1.51168e-26 -8.01169e-13 0)
(5.96676e-27 4.76393e-13 0)
(1.7818e-27 1.68399e-13 0)
(2.16285e-27 2.6602e-13 0)
(1.73797e-27 2.76117e-13 0)
(1.21219e-27 2.66062e-13 0)
(8.72796e-28 2.82312e-13 0)
(4.60277e-28 2.65604e-13 0)
(1.06258e-28 2.43955e-13 0)
(-2.82095e-14 -1.4683e-06 0)
(-8.26383e-15 1.8137e-06 -0)
(-4.64932e-16 -4.30205e-07 0)
(-2.61506e-17 1.02038e-07 -0)
(-1.47186e-18 -2.4202e-08 0)
(-8.25927e-20 5.74072e-09 -0)
(-4.6936e-21 -1.36142e-09 0)
(-2.53711e-22 3.23151e-10 -0)
(-1.64268e-23 -7.64119e-11 0)
(-4.81983e-25 1.84336e-11 -0)
(-1.10281e-25 -4.06675e-12 0)
(1.32721e-26 1.2069e-12 0)
(6.08044e-28 5.15467e-14 0)
(3.4553e-27 3.90204e-13 0)
(1.6721e-27 2.36146e-13 0)
(1.51483e-27 2.80034e-13 0)
(7.66792e-28 1.91248e-13 0)
(5.78205e-28 2.15441e-13 0)
(2.6981e-28 1.7034e-13 0)
(7.67574e-29 1.75121e-13 0)
(-2.81163e-14 1.46549e-06 -0)
(-8.2409e-15 -1.81103e-06 0)
(-4.63646e-16 4.29585e-07 -0)
(-2.60855e-17 -1.01894e-07 0)
(-1.46695e-18 2.41689e-08 -0)
(-8.26588e-20 -5.73254e-09 0)
(-4.61963e-21 1.35999e-09 -0)
(-2.66687e-22 -3.22295e-10 0)
(-1.35308e-23 7.67462e-11 -0)
(-1.06052e-24 -1.78358e-11 0)
(5.59543e-27 4.51199e-12 0)
(-1.12394e-26 -8.65587e-13 0)
(3.70396e-27 4.47895e-13 0)
(1.41336e-27 1.90439e-13 0)
(1.47068e-27 2.52556e-13 0)
(8.80323e-28 1.90341e-13 0)
(6.257e-28 1.85245e-13 0)
(4.61753e-28 2.07025e-13 0)
(2.10683e-28 1.61142e-13 0)
(6.70316e-29 1.92644e-13 0)
(-2.80319e-14 -1.46296e-06 0)
(-8.21979e-15 1.80859e-06 -0)
(-4.62483e-16 -4.29015e-07 0)
(-2.60191e-17 1.01762e-07 -0)
(-1.46403e-18 -2.41376e-08 0)
(-8.23119e-20 5.72569e-09 -0)
(-4.64596e-21 -1.35804e-09 0)
(-2.57655e-22 3.22231e-10 -0)
(-1.53487e-23 -7.6276e-11 0)
(-6.72207e-25 1.82472e-11 -0)
(-7.76735e-26 -4.14188e-12 0)
(5.42861e-27 1.18529e-12 0)
(-1.10292e-27 -1.59836e-13 0)
(8.97148e-28 1.67216e-13 0)
(5.11707e-28 1.09198e-13 0)
(7.20102e-28 1.92999e-13 0)
(5.45992e-28 1.98107e-13 0)
(3.05207e-28 1.74399e-13 0)
(1.77816e-28 1.75699e-13 0)
(3.37049e-29 1.27616e-13 0)
(-2.79603e-14 1.46088e-06 -0)
(-8.20098e-15 -1.80645e-06 0)
(-4.61436e-16 4.28512e-07 -0)
(-2.5961e-17 -1.01643e-07 0)
(-1.46067e-18 2.41099e-08 -0)
(-8.21728e-20 -5.71879e-09 0)
(-4.62295e-21 1.35667e-09 -0)
(-2.60621e-22 -3.21636e-10 0)
(-1.44196e-23 7.63915e-11 -0)
(-8.84941e-25 -1.80258e-11 0)
(-3.00581e-26 4.37178e-12 -0)
(-5.93931e-27 -9.1947e-13 0)
(1.02733e-27 3.27971e-13 0)
(-1.48064e-28 -3.97818e-14 0)
(3.32658e-28 1.02069e-13 0)
(3.38139e-28 1.25181e-13 0)
(2.72587e-28 1.35797e-13 0)
(9.08457e-29 6.76322e-14 0)
(8.872e-29 1.12461e-13 0)
(1.61012e-29 7.36474e-14 0)
(-2.7894e-14 -1.45899e-06 0)
(-8.18316e-15 1.80443e-06 -0)
(-4.60431e-16 -4.28035e-07 0)
(-2.59065e-17 1.0153e-07 -0)
(-1.45719e-18 -2.40827e-08 0)
(-8.20591e-20 5.71249e-09 -0)
(-4.60309e-21 -1.35496e-09 0)
(-2.61327e-22 3.21496e-10 -0)
(-1.43597e-23 -7.61769e-11 0)
(-8.5215e-25 1.82306e-11 -0)
(-4.49793e-26 -4.16223e-12 0)
(-1.82878e-27 1.14519e-12 -0)
(-8.34834e-29 -4.0425e-14 0)
(2.59153e-28 1.70739e-13 0)
(1.17853e-28 6.87993e-14 0)
(1.90739e-28 1.16093e-13 0)
(2.09813e-28 1.53684e-13 0)
(1.53627e-28 1.67112e-13 0)
(6.7103e-29 1.32286e-13 0)
(8.94732e-30 6.45802e-14 0)
(-2.78297e-14 1.45717e-06 -0)
(-8.16563e-15 -1.80246e-06 0)
(-4.59457e-16 4.27564e-07 -0)
(-2.58474e-17 -1.01417e-07 0)
(-1.45492e-18 2.40559e-08 -0)
(-8.17113e-20 -5.706e-09 0)
(-4.62635e-21 1.35352e-09 -0)
(-2.55121e-22 -3.2109e-10 0)
(-1.5242e-23 7.61813e-11 -0)
(-7.20663e-25 -1.81159e-11 0)
(-6.1367e-26 4.3719e-12 -0)
(-8.82167e-28 -9.37925e-13 0)
(-2.56909e-28 2.26596e-13 -0)
(1.7707e-30 5.88481e-15 0)
(2.68946e-29 6.20151e-14 0)
(-2.45086e-29 -3.20397e-14 0)
(2.17107e-29 2.87912e-14 0)
(5.0697e-30 1.06276e-14 0)
(1.34481e-29 3.5695e-14 0)
(5.96614e-30 4.96833e-14 0)
(-2.77736e-14 -1.45565e-06 0)
(-8.14951e-15 1.80067e-06 -0)
(-4.58519e-16 -4.27133e-07 0)
(-2.58014e-17 1.01313e-07 -0)
(-1.45052e-18 -2.40309e-08 0)
(-8.18437e-20 5.70002e-09 -0)
(-4.56017e-21 -1.35204e-09 0)
(-2.64715e-22 3.20742e-10 -0)
(-1.34782e-23 -7.6017e-11 0)
(-9.86008e-25 1.79759e-11 -0)
(-2.00696e-26 -4.36992e-12 0)
(-5.49179e-27 8.75397e-13 -0)
(4.3494e-28 -2.99793e-13 -0)
(-1.43513e-29 1.29623e-14 -0)
(8.38522e-30 -3.72391e-14 -0)
(-3.65718e-30 -4.66552e-14 0)
(2.17486e-29 9.01016e-14 0)
(-1.47068e-29 -5.62243e-14 0)
(5.23442e-30 2.00153e-14 0)
(1.98355e-30 3.22943e-14 0)
(-2.77123e-14 1.4539e-06 -0)
(-8.13282e-15 -1.79879e-06 0)
(-4.57621e-16 4.26682e-07 -0)
(-2.57387e-17 -1.01205e-07 0)
(-1.44984e-18 2.4005e-08 -0)
(-8.12379e-20 -5.69383e-09 0)
(-4.63269e-21 1.35059e-09 -0)
(-2.49927e-22 -3.20307e-10 0)
(-1.58663e-23 7.59546e-11 -0)
(-5.98017e-25 -1.80158e-11 0)
(-7.88764e-26 4.217e-12 -0)
(2.3535e-27 -9.52503e-13 -0)
(-9.37644e-28 2.49485e-13 -0)
(1.01415e-28 -5.91998e-14 -0)
(-3.36402e-29 3.37103e-14 -0)
(-4.16149e-29 9.81723e-14 -0)
(1.29367e-30 -1.57211e-14 -0)
(2.13443e-31 4.88982e-14 0)
(-1.28972e-31 4.42138e-15 -0)
(2.75031e-31 -6.90189e-15 -0)
(-2.76707e-14 -1.45295e-06 0)
(-8.11915e-15 1.79731e-06 -0)
(-4.56753e-16 -4.26325e-07 0)
(-2.57093e-17 1.01119e-07 -0)
(-1.44374e-18 -2.39841e-08 0)
(-8.16873e-20 5.68888e-09 -0)
(-4.51814e-21 -1.34934e-09 0)
(-2.66736e-22 3.20037e-10 -0)
(-1.29903e-23 -7.59351e-11 0)
(-1.05142e-24 1.80098e-11 -0)
(-8.95308e-27 -4.29259e-12 0)
(-8.5352e-27 1.04907e-12 -0)
(5.11611e-28 -1.71452e-13 -0)
(-2.30149e-28 9.76992e-14 -0)
(3.84785e-29 -3.07712e-14 -0)
(7.47578e-30 -1.07919e-14 -0)
(1.6e-29 -4.85731e-14 -0)
(-1.28044e-29 6.18591e-14 -0)
(1.89618e-30 -1.40625e-14 -0)
(1.33538e-30 -2.01208e-14 -0)
(-2.76081e-14 1.45098e-06 -0)
(-8.10353e-15 -1.79552e-06 0)
(-4.56095e-16 4.25899e-07 -0)
(-2.56382e-17 -1.01017e-07 0)
(-1.44643e-18 2.39598e-08 -0)
(-8.08397e-20 -5.68299e-09 0)
(-4.63349e-21 1.34793e-09 -0)
(-2.48201e-22 -3.19664e-10 0)
(-1.59036e-23 7.58494e-11 -0)
(-5.99009e-25 -1.79356e-11 0)
(-8.02876e-26 4.30222e-12 -0)
(2.55729e-27 -9.92299e-13 -0)
(-7.71133e-28 1.99774e-13 -0)
(1.30747e-28 -7.01293e-14 -0)
(-1.41815e-29 1.12429e-14 -0)
(2.13231e-29 -3.43063e-14 -0)
(-1.68607e-29 4.4817e-14 -0)
(-5.50365e-31 2.14511e-15 -0)
(-7.48502e-31 5.91178e-15 -0)
(7.64345e-31 -1.71246e-14 -0)
(-2.76186e-14 -1.45237e-06 0)
(-8.10329e-15 1.79633e-06 -0)
(-4.55822e-16 -4.26407e-07 0)
(-2.56816e-17 1.01212e-07 -0)
(-1.44067e-18 -2.40243e-08 0)
(-8.15299e-20 5.70241e-09 -0)
(-4.51481e-21 -1.3536e-09 0)
(-2.63342e-22 3.21252e-10 -0)
(-1.33928e-23 -7.63241e-11 0)
(-9.56771e-25 1.80619e-11 -0)
(-2.18063e-26 -4.23096e-12 0)
(-6.46989e-27 1.06864e-12 -0)
(4.00029e-28 -2.30204e-13 -0)
(-7.99939e-29 5.05053e-14 -0)
(-6.74918e-31 7.60456e-16 -0)
(1.93523e-29 -3.81497e-14 -0)
(1.05661e-30 -4.49679e-15 -0)
(8.15611e-30 -4.26452e-14 -0)
(3.272e-30 -4.1122e-14 -0)
(-7.17227e-31 1.40397e-14 -0)
(-2.75997e-14 1.45231e-06 -0)
(-8.09408e-15 -1.7951e-06 0)
(-4.56365e-16 4.26282e-07 -0)
(-2.57427e-17 -1.01362e-07 0)
(-1.45238e-18 2.40506e-08 -0)
(-8.22195e-20 -5.74689e-09 0)
(-4.62648e-21 1.3529e-09 -0)
(-2.65752e-22 -3.31516e-10 0)
(-1.4491e-23 7.33803e-11 -0)
(-9.04618e-25 -2.10941e-11 0)
(-3.5864e-26 2.79557e-12 -0)
(-2.91084e-27 -2.11428e-12 0)
(5.31529e-28 -3.68126e-13 -0)
(1.56526e-28 -4.31207e-13 -0)
(7.82881e-29 -2.03658e-13 -0)
(2.48751e-29 -1.11163e-13 -0)
(6.34863e-30 -7.3882e-14 -0)
(2.17299e-31 -8.03259e-15 -0)
(-9.63347e-33 1.7192e-15 -0)
(1.41979e-30 -3.20898e-14 -0)
)
;

boundaryField
{
    movingWall
    {
        type            calculated;
        value           nonuniform List<vector> 
20
(
(0 1.46409e-06 -0)
(0 -1.80159e-06 -0)
(0 4.28962e-07 -0)
(0 -1.02462e-07 -0)
(0 2.43547e-08 -0)
(0 -5.88042e-09 -0)
(0 1.37539e-09 -0)
(0 -3.49664e-10 -0)
(0 7.21436e-11 -0)
(0 -2.48598e-11 -0)
(0 1.21983e-12 -0)
(0 -3.31454e-12 -0)
(0 -9.80657e-13 -0)
(0 -8.60898e-13 -0)
(0 -5.02421e-13 -0)
(0 -2.07484e-13 -0)
(0 -1.52899e-13 -0)
(0 8.07853e-14 -0)
(0 1.7192e-15 -0)
(0 -9.38026e-14 -0)
)
;
    }
    fixedWalls
    {
        type            calculated;
        value           nonuniform List<vector> 
60
(
(0 -7.81072e-06 -0)
(0 7.80207e-06 -0)
(0 -7.78602e-06 -0)
(0 7.77417e-06 -0)
(0 -7.75416e-06 -0)
(0 7.73624e-06 -0)
(0 -7.71735e-06 -0)
(0 7.70195e-06 -0)
(0 -7.68764e-06 -0)
(0 7.67622e-06 -0)
(0 -7.66579e-06 -0)
(0 7.65667e-06 -0)
(0 -7.6481e-06 -0)
(0 7.63975e-06 -0)
(0 -7.6322e-06 -0)
(0 7.62425e-06 -0)
(0 -7.61806e-06 -0)
(0 7.61045e-06 -0)
(0 -7.60836e-06 -0)
(0 7.6044e-06 -0)
(0 2.87101e-14 -0)
(0 8.1751e-14 -0)
(0 1.31981e-13 -0)
(0 1.82247e-13 -0)
(0 2.54709e-13 -0)
(0 2.1212e-13 -0)
(0 1.98191e-13 -0)
(0 2.0133e-13 -0)
(0 1.48219e-13 -0)
(0 1.66287e-13 -0)
(0 1.05645e-13 -0)
(0 6.0345e-14 -0)
(0 5.54183e-14 -0)
(0 4.80334e-14 -0)
(0 2.45685e-14 -0)
(0 -1.59395e-14 -0)
(0 -2.65472e-14 -0)
(0 -1.78537e-14 -0)
(0 6.67073e-15 -0)
(0 -4.48027e-14 -0)
(0 -1.50218e-06 -0)
(0 1.85102e-06 -0)
(0 -4.40701e-07 -0)
(0 1.05526e-07 -0)
(0 -2.49724e-08 -0)
(0 6.10099e-09 -0)
(0 -1.38555e-09 -0)
(0 3.8049e-10 -0)
(0 -5.95758e-11 -0)
(0 3.63683e-11 -0)
(0 6.46804e-12 -0)
(0 9.08739e-12 -0)
(0 5.11945e-12 -0)
(0 3.74505e-12 -0)
(0 2.39168e-12 -0)
(0 1.57853e-12 -0)
(0 8.40945e-13 -0)
(0 4.84289e-13 -0)
(0 1.74568e-13 -0)
(0 7.68112e-14 -0)
)
;
    }
    frontAndBack
    {
        type            empty;
    }
}


// ************************************************************************* //
