/*--------------------------------*- C++ -*----------------------------------*\
| =========                 |                                                 |
| \\      /  F ield         | OpenFOAM: The Open Source CFD Toolbox           |
|  \\    /   O peration     | Version:  2506                                  |
|   \\  /    A nd           | Website:  www.openfoam.com                      |
|    \\/     M anipulation  |                                                 |
\*---------------------------------------------------------------------------*/
FoamFile
{
    version     2.0;
    format      ascii;
    arch        "LSB;label=32;scalar=64";
    class       volScalarField;
    location    "4.375";
    object      Lambda2Field;
}
// * * * * * * * * * * * * * * * * * * * * * * * * * * * * * * * * * * * * * //

dimensions      [0 0 -2 0 0 0 0];

internalField   nonuniform List<scalar> 
400
(
2.6572e-15
-1.78316e-15
-1.70456e-16
-3.32059e-17
-8.58597e-19
-3.71077e-19
1.61634e-20
-6.02599e-21
7.39398e-22
-1.39021e-22
2.43825e-23
-2.84061e-24
1.18008e-24
1.73425e-25
1.73497e-25
8.64337e-26
5.33366e-26
1.07397e-26
7.63697e-27
7.62602e-28
1.14245e-14
1.69974e-16
3.94812e-17
-2.19486e-17
-5.85097e-19
-2.14096e-19
5.30881e-22
-2.1324e-21
1.4808e-22
-2.56109e-23
7.41573e-24
1.14992e-24
1.00179e-24
4.67157e-25
2.55887e-25
1.44255e-25
6.81114e-26
1.8323e-26
3.46696e-27
6.6655e-28
8.58245e-15
1.8719e-15
1.83695e-16
1.19605e-17
2.06187e-19
1.26082e-19
-7.88449e-21
1.8852e-21
-2.01362e-22
4.04645e-23
-2.31242e-24
2.27271e-24
6.59505e-25
4.06585e-25
2.12583e-25
1.0784e-25
3.85101e-26
1.6138e-26
7.34684e-28
6.31212e-28
-1.1814e-15
-3.84066e-16
-4.28538e-17
-2.59435e-18
-3.8496e-20
-5.81396e-20
6.88788e-21
-1.45287e-21
2.27341e-22
-3.1834e-23
7.96959e-24
3.40151e-25
7.78735e-25
3.21012e-25
1.9071e-25
8.70384e-26
4.94382e-26
1.74555e-26
8.09642e-27
2.93424e-28
-4.61469e-15
-1.21993e-15
-1.17073e-16
-5.92195e-18
-5.30429e-19
-7.58753e-21
-6.85866e-21
8.76805e-22
-1.87856e-22
3.57841e-23
-3.6041e-24
1.95112e-24
3.90672e-25
3.1145e-25
1.5254e-25
7.93449e-26
3.75731e-26
8.65096e-27
7.30216e-27
-1.13723e-26
-6.47244e-15
-1.63218e-15
-1.59899e-16
-8.09792e-18
-5.67928e-19
-5.20112e-20
4.30558e-22
-8.18961e-22
1.23279e-22
-2.2155e-23
5.75307e-24
3.65654e-26
5.78268e-25
2.31254e-25
1.1262e-25
6.76342e-26
3.01981e-26
7.34684e-28
6.8947e-27
6.51327e-27
-6.12362e-15
-1.53719e-15
-1.43943e-16
-7.7022e-18
-5.27842e-19
-3.20325e-20
-3.76478e-21
2.77924e-22
-9.65214e-23
1.97368e-23
-2.37732e-24
1.22582e-24
2.95992e-25
2.41286e-25
1.30525e-25
8.69153e-26
3.84207e-26
3.28258e-26
0
6.80208e-27
-5.25364e-15
-1.30103e-15
-1.21903e-16
-6.29229e-18
-4.44243e-19
-3.23753e-20
-9.09086e-22
-3.6396e-22
5.03076e-23
-1.26027e-23
3.5578e-24
1.01337e-25
4.07458e-25
1.66133e-25
8.80787e-26
4.64168e-26
2.48806e-26
3.21471e-27
7.01799e-28
-5.14306e-27
-3.90453e-15
-9.70903e-16
-8.61857e-17
-4.85933e-18
-3.00765e-19
-2.23536e-20
-1.65389e-21
3.70344e-23
-3.69443e-23
7.62531e-24
-5.56506e-25
8.44527e-25
2.15898e-25
1.3815e-25
9.05891e-26
2.66921e-26
2.87757e-26
1.31864e-26
1.21729e-26
5.55809e-27
-2.85274e-15
-7.17473e-16
-6.27124e-17
-3.51937e-18
-2.46605e-19
-1.51606e-20
-1.09821e-21
-7.3002e-23
5.28081e-24
-2.08709e-25
1.32949e-24
2.97442e-25
2.99995e-25
1.19057e-25
6.49295e-26
3.16242e-26
2.47358e-26
8.71922e-27
5.83713e-27
-1.54821e-27
-1.92429e-15
-4.98734e-16
-4.17695e-17
-2.61616e-18
-1.55575e-19
-1.39193e-20
-5.29991e-22
-7.56002e-23
1.55117e-24
8.49295e-25
5.75992e-25
4.23178e-25
2.57536e-25
1.36165e-25
7.46025e-26
1.83671e-26
1.17549e-26
7.87115e-27
-1.0889e-27
0
-1.33184e-15
-3.53787e-16
-3.00333e-17
-1.80948e-18
-1.30693e-19
-6.4744e-21
-1.09682e-21
8.02766e-23
-1.90142e-23
3.9389e-24
1.69259e-25
4.62922e-25
2.18946e-25
1.47679e-25
5.95094e-26
3.59995e-26
1.83671e-26
1.35064e-26
2.54819e-27
2.7309e-27
-8.90144e-16
-2.3623e-16
-2.05881e-17
-1.22689e-18
-7.31133e-20
-8.23377e-21
3.31689e-22
-1.97556e-22
3.45049e-23
-7.32086e-24
2.10362e-24
2.82853e-26
2.66426e-25
6.8696e-26
8.08498e-26
2.36207e-26
7.27504e-28
5.26366e-28
-1.29377e-27
0
-4.85231e-16
-1.17915e-16
-9.85223e-18
-5.83062e-19
-3.69485e-20
1.54709e-21
-1.27327e-21
2.28335e-22
-5.19364e-23
9.73414e-24
-1.50632e-24
6.73357e-25
1.13216e-25
7.25113e-26
4.25965e-26
1.83671e-26
6.61216e-27
5.34886e-27
0
0
-3.41101e-16
-4.89245e-17
-7.30506e-18
-1.09854e-19
5.93131e-21
-6.96253e-21
1.72551e-21
-3.79064e-22
8.01352e-23
-1.17377e-23
2.58795e-24
-4.74314e-26
1.80909e-25
5.7172e-26
1.62524e-26
1.41334e-26
8.59826e-27
2.12496e-27
1.64771e-27
0
7.60992e-17
7.0533e-17
5.95439e-18
6.10798e-19
1.1333e-20
1.66764e-20
-2.4757e-21
5.8565e-22
-9.27595e-23
1.91981e-23
-2.25722e-24
8.44915e-25
4.81534e-26
7.5445e-26
2.75785e-26
2.33189e-26
1.16081e-27
2.4835e-27
1.57102e-27
0
-3.17549e-16
1.56598e-17
-4.55374e-18
-9.09489e-20
1.16398e-19
-2.34803e-20
4.36325e-21
-7.31539e-22
1.21855e-22
-1.87677e-23
3.67707e-24
-2.74716e-25
2.35116e-25
4.6987e-26
2.25374e-26
7.88036e-27
8.63904e-28
1.58208e-27
0
0
6.02284e-16
1.86617e-16
1.70284e-17
3.64004e-18
-4.94126e-20
5.79055e-20
-4.12984e-21
1.00714e-21
-1.13739e-22
2.23685e-23
-2.39126e-24
7.58171e-25
3.48514e-26
5.22443e-26
1.75781e-26
5.1424e-27
3.05703e-27
6.79017e-28
6.04995e-28
2.33542e-30
-2.66445e-15
-2.86111e-15
-2.88068e-16
-3.13454e-17
-1.91607e-18
-2.22191e-19
-7.85108e-21
-1.65527e-21
2.85055e-23
-1.66427e-23
2.50214e-24
-1.05188e-25
1.55315e-25
3.40637e-26
1.93632e-26
3.35101e-27
8.5657e-28
1.05555e-28
0
3.54138e-28
-4.07644e-15
-3.14398e-15
-3.28756e-16
-3.41106e-17
-1.92628e-18
-2.76624e-19
-1.69787e-21
-2.94448e-21
1.94046e-22
-4.75302e-23
6.21445e-24
-8.92131e-25
1.95537e-25
0
9.11338e-27
2.91716e-27
0
0
7.2542e-29
0
)
;

boundaryField
{
    movingWall
    {
        type            calculated;
        value           nonuniform List<scalar> 
20
(
0
0
0
0
0
0
0
0
3.10973e-22
0
1.32269e-23
-2.17414e-24
3.44875e-25
-5.35359e-26
4.95389e-27
2.70965e-27
0
7.13437e-28
5.0238e-30
0
)
;
    }
    fixedWalls
    {
        type            calculated;
        value           nonuniform List<scalar> 
60
(
1.39363e-14
5.98872e-14
4.46972e-14
-4.90544e-15
-2.31624e-14
-3.35018e-14
-3.1982e-14
-2.76324e-14
-2.06037e-14
-1.50703e-14
-1.01814e-14
-7.06034e-15
-4.73864e-15
-2.59492e-15
-1.83642e-15
4.05112e-16
-1.69941e-15
3.15685e-15
-1.39894e-14
-2.11783e-14
7.62602e-28
0
0
0
-1.06662e-26
6.52264e-27
6.37073e-27
-2.75022e-27
4.75218e-27
-3.46908e-27
1.67263e-28
2.37034e-27
0
0
0
0
0
2.33542e-30
5.53873e-28
0
0
0
0
0
0
0
9.40742e-21
0
1.48584e-21
-7.27238e-23
4.86559e-23
-8.38933e-24
1.57244e-24
-1.86665e-25
7.489e-26
2.62777e-26
3.52455e-26
5.14713e-28
4.67284e-27
0
)
;
    }
    frontAndBack
    {
        type            empty;
    }
}


// ************************************************************************* //
