/*--------------------------------*- C++ -*----------------------------------*\
| =========                 |                                                 |
| \\      /  F ield         | OpenFOAM: The Open Source CFD Toolbox           |
|  \\    /   O peration     | Version:  2506                                  |
|   \\  /    A nd           | Website:  www.openfoam.com                      |
|    \\/     M anipulation  |                                                 |
\*---------------------------------------------------------------------------*/
FoamFile
{
    version     2.0;
    format      ascii;
    arch        "LSB;label=32;scalar=64";
    class       volScalarField;
    location    "4.375";
    object      pNear;
}
// * * * * * * * * * * * * * * * * * * * * * * * * * * * * * * * * * * * * * //

dimensions      [0 2 -2 0 0 0 0];

internalField   nonuniform List<scalar> 
400
(
1.75025e-16
0
2.51674e-12
2.04702e-13
6.58157e-13
2.89341e-13
2.97438e-13
2.35026e-13
2.19113e-13
2.02512e-13
1.93527e-13
1.86817e-13
1.82207e-13
1.79055e-13
1.7664e-13
1.75081e-13
1.73674e-13
1.72673e-13
1.72207e-13
1.71941e-13
4.98412e-13
2.27974e-12
4.39539e-13
3.47108e-13
3.14404e-13
2.72913e-13
2.49807e-13
2.2442e-13
2.09329e-13
1.9776e-13
1.90018e-13
1.84584e-13
1.80704e-13
1.77992e-13
1.75955e-13
1.74588e-13
1.73424e-13
1.72362e-13
1.71893e-13
1.71676e-13
0
0
0
0
2.46914e-13
1.92149e-13
2.13314e-13
2.00102e-13
1.95325e-13
1.88733e-13
1.84179e-13
1.80598e-13
1.78062e-13
1.76069e-13
1.7457e-13
1.73587e-13
1.72683e-13
1.71693e-13
1.71298e-13
1.71192e-13
1.37807e-12
6.72589e-12
1.76867e-13
3.20573e-13
6.62633e-14
1.62657e-13
1.68139e-13
1.79017e-13
1.79303e-13
1.78909e-13
1.77518e-13
1.76054e-13
1.74662e-13
1.73682e-13
1.7282e-13
1.7206e-13
1.71521e-13
1.7097e-13
1.70547e-13
1.70603e-13
0
0
0
0
1.60721e-13
1.25737e-13
1.55362e-13
1.60102e-13
1.66799e-13
1.69203e-13
1.70641e-13
1.7097e-13
1.71066e-13
1.70983e-13
1.70811e-13
1.70486e-13
1.70308e-13
1.70013e-13
1.69704e-13
1.69797e-13
2.07628e-12
4.74065e-12
1.88196e-13
2.14886e-13
5.47644e-14
1.22104e-13
1.3427e-13
1.49543e-13
1.56548e-13
1.61469e-13
1.64565e-13
1.66339e-13
1.67466e-13
1.68193e-13
1.68583e-13
1.68787e-13
1.68978e-13
1.68991e-13
1.68932e-13
1.69084e-13
0
0
0
0
1.19832e-13
1.11922e-13
1.31199e-13
1.4092e-13
1.49663e-13
1.5548e-13
1.59731e-13
1.623e-13
1.64354e-13
1.65739e-13
1.66628e-13
1.67409e-13
1.67713e-13
1.68045e-13
1.67983e-13
1.67977e-13
2.23422e-12
2.03287e-12
2.29226e-13
1.15989e-13
8.51149e-14
1.10204e-13
1.24935e-13
1.36333e-13
1.44807e-13
1.51286e-13
1.55754e-13
1.59214e-13
1.62069e-13
1.63985e-13
1.6508e-13
1.65813e-13
1.66712e-13
1.6689e-13
1.67073e-13
1.67411e-13
0
0
0
7.51142e-14
9.95827e-14
1.14347e-13
1.23534e-13
1.34003e-13
1.41886e-13
1.48565e-13
1.53173e-13
1.57082e-13
1.60094e-13
1.62301e-13
1.63813e-13
1.64997e-13
1.65688e-13
1.66121e-13
1.66613e-13
1.66911e-13
2.09333e-12
4.17834e-13
2.90987e-13
6.7855e-14
1.10737e-13
1.08566e-13
1.24579e-13
1.3258e-13
1.40769e-13
1.4687e-13
1.51986e-13
1.55852e-13
1.58844e-13
1.61361e-13
1.62995e-13
1.64282e-13
1.6513e-13
1.65742e-13
1.66146e-13
1.66437e-13
0
1.028e-13
0
1.26092e-13
9.01436e-14
1.19625e-13
1.23271e-13
1.33505e-13
1.40215e-13
1.46601e-13
1.5153e-13
1.55393e-13
1.58292e-13
1.60823e-13
1.6251e-13
1.63862e-13
1.64677e-13
1.65406e-13
1.65949e-13
1.66255e-13
2.0668e-12
0
3.54605e-13
4.66186e-14
1.26096e-13
1.10439e-13
1.27943e-13
1.33801e-13
1.41434e-13
1.47117e-13
1.51903e-13
1.55545e-13
1.58389e-13
1.6064e-13
1.62344e-13
1.63782e-13
1.64636e-13
1.65224e-13
1.65696e-13
1.66105e-13
0
6.01225e-13
0
1.49071e-13
8.56571e-14
1.2493e-13
1.26526e-13
1.37172e-13
1.42917e-13
1.48728e-13
1.53111e-13
1.56532e-13
1.58944e-13
1.6111e-13
1.62423e-13
1.63868e-13
1.64787e-13
1.6525e-13
1.65768e-13
1.66094e-13
2.09735e-12
0
3.73664e-13
2.85756e-14
1.33112e-13
1.1368e-13
1.33773e-13
1.39136e-13
1.46106e-13
1.50907e-13
1.5494e-13
1.57943e-13
1.60206e-13
1.61905e-13
1.63381e-13
1.64288e-13
1.65017e-13
1.65437e-13
1.65912e-13
1.66136e-13
0
7.86125e-13
0
1.49267e-13
8.49258e-14
1.31448e-13
1.34389e-13
1.4511e-13
1.49757e-13
1.54408e-13
1.57584e-13
1.60036e-13
1.61635e-13
1.63177e-13
1.64331e-13
1.65043e-13
1.65359e-13
1.65737e-13
1.65933e-13
1.66131e-13
1.96436e-12
0
3.36904e-13
1.46195e-14
1.39844e-13
1.24384e-13
1.45835e-13
1.50361e-13
1.5581e-13
1.58698e-13
1.60957e-13
1.62448e-13
1.63487e-13
1.64366e-13
1.65144e-13
1.65693e-13
1.65951e-13
1.65946e-13
1.6615e-13
1.66323e-13
0
7.39962e-13
0
1.38531e-13
1.04462e-13
1.5005e-13
1.54009e-13
1.60805e-13
1.62549e-13
1.64018e-13
1.64526e-13
1.64996e-13
1.65454e-13
1.65821e-13
1.66134e-13
1.66288e-13
1.66284e-13
1.66291e-13
1.66456e-13
1.66688e-13
1.52892e-12
0
2.97056e-13
2.30273e-14
1.89493e-13
1.61063e-13
1.76556e-13
1.71219e-13
1.71068e-13
1.6922e-13
1.6836e-13
1.67498e-13
1.67095e-13
1.66909e-13
1.6693e-13
1.66863e-13
1.66754e-13
1.66572e-13
1.66689e-13
1.67013e-13
0
0
2.2299e-13
1.8109e-13
2.39746e-13
2.01499e-13
1.96878e-13
1.83738e-13
1.78469e-13
1.73774e-13
1.71187e-13
1.69323e-13
1.68346e-13
1.6782e-13
1.67626e-13
1.6736e-13
1.6704e-13
1.66926e-13
1.67003e-13
1.67118e-13
5.9289e-13
0
2.04222e-12
0
4.86014e-13
1.81979e-13
2.28457e-13
1.86814e-13
1.84516e-13
1.75995e-13
1.72969e-13
1.70361e-13
1.69065e-13
1.68217e-13
1.6804e-13
1.67731e-13
1.67247e-13
1.66971e-13
1.67013e-13
1.67338e-13
)
;

boundaryField
{
    movingWall
    {
        type            zeroGradient;
    }
    fixedWalls
    {
        type            calculated;
        value           nonuniform List<scalar> 
60
(
7.49106e-14
3.48915e-13
2.81472e-13
9.64649e-13
5.18153e-13
1.4534e-12
6.46576e-13
1.56396e-12
6.49133e-13
1.46533e-12
6.24019e-13
1.44676e-12
6.24623e-13
1.46815e-12
6.09257e-13
1.37505e-12
5.23992e-13
1.07025e-12
3.18272e-13
5.03957e-13
1.71901e-13
1.71643e-13
1.71176e-13
1.7057e-13
1.69811e-13
1.69025e-13
1.68059e-13
1.67421e-13
1.66915e-13
1.66481e-13
1.6626e-13
1.66126e-13
1.66102e-13
1.66129e-13
1.6616e-13
1.66349e-13
1.66682e-13
1.6698e-13
1.67135e-13
1.67305e-13
1.48771e-16
3.77537e-13
1.79242e-12
6.19526e-13
5.34816e-13
3.45878e-13
2.86862e-13
2.42001e-13
2.19009e-13
2.03654e-13
1.93868e-13
1.87132e-13
1.82426e-13
1.79165e-13
1.76768e-13
1.75104e-13
1.73735e-13
1.72753e-13
1.72237e-13
1.71981e-13
)
;
    }
    frontAndBack
    {
        type            empty;
    }
}


// ************************************************************************* //
