/*--------------------------------*- C++ -*----------------------------------*\
| =========                 |                                                 |
| \\      /  F ield         | OpenFOAM: The Open Source CFD Toolbox           |
|  \\    /   O peration     | Version:  2506                                  |
|   \\  /    A nd           | Website:  www.openfoam.com                      |
|    \\/     M anipulation  |                                                 |
\*---------------------------------------------------------------------------*/
FoamFile
{
    version     2.0;
    format      ascii;
    arch        "LSB;label=32;scalar=64";
    class       volScalarField;
    location    "4.375";
    object      QField;
}
// * * * * * * * * * * * * * * * * * * * * * * * * * * * * * * * * * * * * * //

dimensions      [0 0 -2 0 0 0 0];

internalField   nonuniform List<scalar> 
400
(
-2.65754e-15
1.78949e-15
1.72688e-16
3.37036e-17
9.47824e-19
3.77592e-19
-1.65818e-20
6.06931e-21
-7.53212e-22
1.40887e-22
-2.50207e-23
2.874e-24
-1.26716e-24
-1.82378e-25
-1.73562e-25
-9.0958e-26
-5.6023e-26
-1.7444e-26
-8.53461e-27
-1.49703e-27
-1.14295e-14
-1.74368e-16
-3.97252e-17
2.202e-17
5.8822e-19
2.14244e-19
-5.3384e-22
2.13254e-21
-1.48551e-22
2.57685e-23
-7.46353e-24
-1.18264e-24
-1.017e-24
-4.72131e-25
-2.63125e-25
-1.44264e-25
-7.59615e-26
-2.18137e-26
-3.78656e-27
-6.99788e-28
-8.58561e-15
-1.89252e-15
-1.84493e-16
-1.20812e-17
-2.10271e-19
-1.26477e-19
8.03844e-21
-1.87939e-21
2.03651e-22
-4.07958e-23
2.33409e-24
-2.31773e-24
-6.88529e-25
-4.14471e-25
-2.14038e-25
-1.10799e-25
-4.25527e-26
-1.65546e-26
-1.81579e-27
-1.36197e-27
1.19728e-15
4.53796e-16
4.50037e-17
3.03373e-18
5.49117e-20
5.93908e-20
-6.93587e-21
1.45683e-21
-2.27209e-22
3.18987e-23
-7.99843e-24
-3.4741e-25
-7.79381e-25
-3.23489e-25
-1.94753e-25
-9.30085e-26
-5.51789e-26
-1.79857e-26
-8.16417e-27
-4.643e-28
4.63789e-15
1.28044e-15
1.18908e-16
6.3013e-18
5.43746e-19
8.91482e-21
6.93748e-21
-8.8097e-22
1.88082e-22
-3.5825e-23
3.60564e-24
-1.95493e-24
-3.91319e-25
-3.17741e-25
-1.53018e-25
-7.96887e-26
-4.13826e-26
-9.90226e-27
-7.59525e-27
1.15752e-26
6.50361e-15
1.66498e-15
1.60741e-16
8.2849e-18
5.74447e-19
5.24372e-20
-4.56604e-22
8.20428e-22
-1.23726e-22
2.22073e-23
-5.78007e-24
-3.74053e-26
-5.81098e-25
-2.30756e-25
-1.1262e-25
-6.76342e-26
-3.03359e-26
-8.85199e-28
-6.8947e-27
-6.8109e-27
6.155e-15
1.55378e-15
1.44304e-16
7.79075e-18
5.30268e-19
3.22607e-20
3.77216e-21
-2.79289e-22
9.66571e-23
-1.97371e-23
2.40648e-24
-1.23002e-24
-3.0156e-25
-2.44708e-25
-1.32173e-25
-8.69153e-26
-3.8545e-26
-3.28258e-26
0
-7.41894e-27
5.28351e-15
1.3058e-15
1.2194e-16
6.31186e-18
4.44505e-19
3.23817e-20
9.11023e-22
3.64092e-22
-5.03229e-23
1.26122e-23
-3.5708e-24
-1.20463e-25
-4.11743e-25
-1.70882e-25
-9.41599e-26
-5.04876e-26
-2.67631e-26
-4.61044e-27
-7.18053e-28
6.21637e-27
3.93041e-15
9.71805e-16
8.62172e-17
4.86123e-18
3.00887e-19
2.23742e-20
1.65619e-21
-3.77333e-23
3.71467e-23
-7.69696e-24
6.01751e-25
-8.49201e-25
-2.19371e-25
-1.49662e-25
-9.98944e-26
-3.09488e-26
-3.17455e-26
-1.35769e-26
-1.21729e-26
-5.95626e-27
2.87565e-15
7.18065e-16
6.27942e-17
3.52298e-18
2.47072e-19
1.5229e-20
1.10558e-21
7.51476e-23
-5.61705e-24
2.55519e-25
-1.33268e-24
-3.20503e-25
-3.12442e-25
-1.26775e-25
-7.24906e-26
-3.60027e-26
-2.657e-26
-1.01239e-26
-6.65257e-27
3.54261e-27
1.94499e-15
4.99834e-16
4.18664e-17
2.62215e-18
1.5663e-19
1.39944e-20
5.4694e-22
7.76166e-23
-2.05925e-24
-9.55379e-25
-6.15927e-25
-4.24481e-25
-2.99959e-25
-1.42368e-25
-7.83574e-26
-2.60721e-26
-1.48575e-26
-1.20237e-26
1.21664e-27
0
1.35154e-15
3.55348e-16
3.01778e-17
1.82286e-18
1.32501e-19
6.67919e-21
1.10802e-21
-8.21483e-23
1.95981e-23
-4.00495e-24
-1.8395e-25
-4.66458e-25
-2.21062e-25
-1.56081e-25
-7.25257e-26
-3.96192e-26
-1.88491e-26
-1.78637e-26
-4.10475e-27
-2.7309e-27
9.09187e-16
2.37947e-16
2.07689e-17
1.24411e-18
7.55128e-20
8.41355e-21
-3.36974e-22
2.00037e-22
-3.50341e-23
7.45607e-24
-2.11487e-24
-4.72878e-26
-2.81004e-25
-8.79539e-26
-1.00577e-25
-2.86614e-26
-4.30615e-27
-4.76255e-27
1.99824e-27
0
5.03755e-16
1.20385e-16
1.01007e-17
6.08728e-19
3.98046e-20
-1.53577e-21
1.29083e-21
-2.3043e-22
5.24925e-23
-9.86787e-24
1.50759e-24
-6.8282e-25
-1.13487e-25
-8.24119e-26
-5.75656e-26
-2.12043e-26
-9.13859e-27
-9.93668e-27
0
0
3.58572e-16
5.13137e-17
7.53638e-18
1.33259e-19
-5.4439e-21
7.1682e-21
-1.73195e-21
3.8145e-22
-8.05766e-23
1.18145e-23
-2.63577e-24
7.1342e-26
-1.90279e-25
-6.57408e-26
-2.12813e-26
-1.61118e-26
-8.78702e-27
-2.45315e-27
-3.30074e-27
0
-7.09758e-17
-6.86349e-17
-5.82009e-18
-6.02476e-19
-1.02934e-20
-1.66775e-20
2.49373e-21
-5.87126e-22
9.30298e-23
-1.92458e-23
2.2793e-24
-8.45564e-25
-4.95811e-26
-8.35458e-26
-2.93035e-26
-2.78233e-26
-1.16081e-27
-4.09811e-27
-2.14868e-27
0
3.31649e-16
-1.4096e-17
4.73708e-18
1.10133e-19
-1.16254e-19
2.36167e-20
-4.3667e-21
7.32305e-22
-1.21891e-22
1.87772e-23
-3.67683e-24
2.74828e-25
-2.35564e-25
-4.6987e-26
-2.25374e-26
-8.02544e-27
-1.59336e-27
-1.58208e-27
0
0
-5.967e-16
-1.85185e-16
-1.68715e-17
-3.62876e-18
5.22941e-20
-5.77645e-20
4.16211e-21
-1.00476e-21
1.14346e-22
-2.24386e-23
2.41883e-24
-7.61668e-25
-3.95876e-26
-5.34896e-26
-1.78272e-26
-5.30115e-27
-3.47977e-27
-5.91228e-28
-4.2463e-28
-4.14222e-29
2.67106e-15
2.86198e-15
2.8816e-16
3.13495e-17
1.91649e-18
2.22196e-19
7.85126e-21
1.65588e-21
-2.8704e-23
1.66427e-23
-2.50972e-24
1.11482e-25
-1.68976e-25
-3.59393e-26
-2.11806e-26
-3.92509e-27
-8.5657e-28
-2.00886e-28
5.19357e-29
-3.54138e-28
4.08091e-15
3.1523e-15
3.3138e-16
3.46826e-17
2.01219e-18
2.84809e-19
2.89243e-21
3.00864e-21
-2.00835e-22
4.83563e-23
-6.41592e-24
8.95391e-25
-2.15044e-25
2.79832e-27
-1.11487e-26
-7.4804e-27
-6.73181e-28
0
2.30858e-28
-1.2328e-28
)
;

boundaryField
{
    movingWall
    {
        type            calculated;
        value           nonuniform List<scalar> 
20
(
9.09632e-15
9.7731e-15
7.43439e-16
6.78052e-17
1.70536e-18
5.25207e-19
-1.98037e-20
6.54873e-21
-7.00542e-22
1.21335e-22
-1.74515e-23
2.73117e-24
-4.2004e-25
5.6371e-26
-9.87008e-27
-6.82855e-27
7.57521e-28
-7.13437e-28
6.07528e-29
-3.69604e-29
)
;
    }
    fixedWalls
    {
        type            calculated;
        value           nonuniform List<scalar> 
60
(
-1.39446e-14
-5.99637e-14
-4.50101e-14
6.30378e-15
2.43466e-14
3.41212e-14
3.22889e-14
2.7714e-14
2.06171e-14
1.5084e-14
1.02034e-14
7.0905e-15
4.77096e-15
2.6443e-15
1.88306e-15
-3.70318e-16
1.74109e-15
-3.12841e-15
1.40083e-14
2.14092e-14
-1.22636e-27
0
0
0
1.08691e-26
-7.31012e-27
-7.54997e-27
5.27717e-27
-4.75218e-27
3.77254e-27
1.14868e-27
-2.37034e-27
0
0
0
0
0
-6.78661e-29
-5.53873e-28
-3.67004e-28
9.90106e-15
1.04441e-14
6.31979e-16
8.72805e-17
-7.85703e-19
8.76449e-19
-7.07065e-20
1.46673e-20
-2.06074e-21
3.60649e-22
-5.8482e-23
9.70493e-24
-1.81242e-24
1.96979e-25
-8.58147e-26
-3.31458e-26
-3.76927e-26
-8.4499e-27
-5.4317e-27
-1.17423e-28
)
;
    }
    frontAndBack
    {
        type            empty;
    }
}


// ************************************************************************* //
