/*--------------------------------*- C++ -*----------------------------------*\
| =========                 |                                                 |
| \\      /  F ield         | OpenFOAM: The Open Source CFD Toolbox           |
|  \\    /   O peration     | Version:  2506                                  |
|   \\  /    A nd           | Website:  www.openfoam.com                      |
|    \\/     M anipulation  |                                                 |
\*---------------------------------------------------------------------------*/
FoamFile
{
    version     2.0;
    format      ascii;
    arch        "LSB;label=32;scalar=64";
    class       volVectorField;
    location    "4.375";
    object      UNear;
}
// * * * * * * * * * * * * * * * * * * * * * * * * * * * * * * * * * * * * * //

dimensions      [0 1 -1 0 0 0 0];

internalField   nonuniform List<vector> 
400
(
(-1 1.95312e-08 0)
(-1 -4.63748e-09 0)
(-1 1.10213e-09 0)
(-1 -2.61445e-10 0)
(-1 6.22932e-11 0)
(-1 -1.4728e-11 0)
(-1 3.54241e-12 0)
(-1 -8.19219e-13 0)
(-1 2.09575e-13 0)
(-1 -4.00515e-14 0)
(-1 1.64222e-14 0)
(-1 9.6128e-16 0)
(-1 3.26387e-15 0)
(-1 1.72524e-15 0)
(-1 1.34052e-15 0)
(-1 9.01036e-16 0)
(-1 6.54248e-16 0)
(-1 4.85191e-16 0)
(-1 2.52248e-16 0)
(-1 7.17751e-17 0)
(-1 -1.95243e-08 0)
(-1 4.63933e-09 0)
(-1 -1.09931e-09 0)
(-1 2.61569e-10 0)
(-1 -6.17113e-11 0)
(-1 1.48143e-11 0)
(-1 -3.40873e-12 0)
(-1 8.70756e-13 0)
(-1 -1.65726e-13 0)
(-1 6.65984e-14 0)
(-1 3.39709e-15 0)
(-1 1.28333e-14 0)
(-1 6.70466e-15 0)
(-1 5.44912e-15 0)
(-1 3.80818e-15 0)
(-1 2.77044e-15 0)
(-1 1.95323e-15 0)
(-1 1.36475e-15 0)
(-1 7.41639e-16 0)
(-1 2.04377e-16 0)
(-1 1.94794e-08 0)
(-1 -4.62398e-09 0)
(-1 1.09774e-09 0)
(-1 -2.60098e-10 0)
(-1 6.20497e-11 0)
(-1 -1.45271e-11 0)
(-1 3.57796e-12 0)
(-1 -7.6471e-13 0)
(-1 2.38868e-13 0)
(-1 -1.71382e-14 0)
(-1 3.21094e-14 0)
(-1 1.26065e-14 0)
(-1 1.17585e-14 0)
(-1 8.03919e-15 0)
(-1 6.10545e-15 0)
(-1 4.42444e-15 0)
(-1 3.03502e-15 0)
(-1 1.89135e-15 0)
(-1 1.1047e-15 0)
(-1 3.29951e-16 0)
(-1 -1.94333e-08 0)
(-1 4.61026e-09 0)
(-1 -1.09344e-09 0)
(-1 2.59615e-10 0)
(-1 -6.13684e-11 0)
(-1 1.47226e-11 0)
(-1 -3.36987e-12 0)
(-1 8.87081e-13 0)
(-1 -1.47067e-13 0)
(-1 8.06925e-14 0)
(-1 1.43151e-14 0)
(-1 2.12666e-14 0)
(-1 1.33128e-14 0)
(-1 1.04897e-14 0)
(-1 7.64124e-15 0)
(-1 5.6492e-15 0)
(-1 3.91563e-15 0)
(-1 2.40906e-15 0)
(-1 1.41155e-15 0)
(-1 4.55617e-16 0)
(-1 1.93774e-08 0)
(-1 -4.59523e-09 0)
(-1 1.09016e-09 0)
(-1 -2.58373e-10 0)
(-1 6.14275e-11 0)
(-1 -1.44403e-11 0)
(-1 3.52781e-12 0)
(-1 -7.56575e-13 0)
(-1 2.40499e-13 0)
(-1 -1.07034e-14 0)
(-1 3.75794e-14 0)
(-1 1.76114e-14 0)
(-1 1.58401e-14 0)
(-1 1.1368e-14 0)
(-1 8.71064e-15 0)
(-1 6.41784e-15 0)
(-1 4.5546e-15 0)
(-1 2.92422e-15 0)
(-1 1.63401e-15 0)
(-1 5.01248e-16 0)
(-1 -1.93295e-08 0)
(-1 4.58333e-09 0)
(-1 -1.08702e-09 0)
(-1 2.57878e-10 0)
(-1 -6.10396e-11 0)
(-1 1.45748e-11 0)
(-1 -3.37181e-12 0)
(-1 8.6811e-13 0)
(-1 -1.51076e-13 0)
(-1 7.88737e-14 0)
(-1 1.48661e-14 0)
(-1 2.25488e-14 0)
(-1 1.47157e-14 0)
(-1 1.19588e-14 0)
(-1 9.03172e-15 0)
(-1 6.76511e-15 0)
(-1 4.87295e-15 0)
(-1 3.14176e-15 0)
(-1 1.79073e-15 0)
(-1 5.98063e-16 0)
(-1 1.92829e-08 0)
(-1 -4.57222e-09 0)
(-1 1.08452e-09 0)
(-1 -2.57105e-10 0)
(-1 6.10446e-11 0)
(-1 -1.44037e-11 0)
(-1 3.48103e-12 0)
(-1 -7.69386e-13 0)
(-1 2.28911e-13 0)
(-1 -1.64861e-14 0)
(-1 3.43494e-14 0)
(-1 1.60385e-14 0)
(-1 1.51935e-14 0)
(-1 1.12425e-14 0)
(-1 8.88477e-15 0)
(-1 6.72672e-15 0)
(-1 4.87651e-15 0)
(-1 3.2508e-15 0)
(-1 1.84886e-15 0)
(-1 5.63241e-16 0)
(-1 -1.92458e-08 0)
(-1 4.56382e-09 0)
(-1 -1.08243e-09 0)
(-1 2.56748e-10 0)
(-1 -6.08307e-11 0)
(-1 1.44809e-11 0)
(-1 -3.38415e-12 0)
(-1 8.46517e-13 0)
(-1 -1.63052e-13 0)
(-1 7.02032e-14 0)
(-1 9.3921e-15 0)
(-1 1.88684e-14 0)
(-1 1.25249e-14 0)
(-1 1.05808e-14 0)
(-1 8.13039e-15 0)
(-1 6.29432e-15 0)
(-1 4.55606e-15 0)
(-1 3.0916e-15 0)
(-1 1.73294e-15 0)
(-1 4.35562e-16 0)
(-1 1.92124e-08 0)
(-1 -4.55633e-09 0)
(-1 1.08072e-09 0)
(-1 -2.56282e-10 0)
(-1 6.08158e-11 0)
(-1 -1.43872e-11 0)
(-1 3.44757e-12 0)
(-1 -7.85116e-13 0)
(-1 2.14977e-13 0)
(-1 -2.6147e-14 0)
(-1 2.71176e-14 0)
(-1 1.09969e-14 0)
(-1 1.1796e-14 0)
(-1 8.8551e-15 0)
(-1 7.0808e-15 0)
(-1 5.40945e-15 0)
(-1 4.00941e-15 0)
(-1 2.68381e-15 0)
(-1 1.58395e-15 0)
(-1 4.38311e-16 0)
(-1 -1.91856e-08 0)
(-1 4.55039e-09 0)
(-1 -1.07929e-09 0)
(-1 2.56006e-10 0)
(-1 -6.06956e-11 0)
(-1 1.44192e-11 0)
(-1 -3.39681e-12 0)
(-1 8.27464e-13 0)
(-1 -1.76305e-13 0)
(-1 5.94599e-14 0)
(-1 1.24012e-15 0)
(-1 1.29847e-14 0)
(-1 8.26969e-15 0)
(-1 7.42159e-15 0)
(-1 5.8232e-15 0)
(-1 4.62498e-15 0)
(-1 3.37769e-15 0)
(-1 2.23043e-15 0)
(-1 1.30744e-15 0)
(-1 3.47955e-16 0)
(-1 1.91611e-08 0)
(-1 -4.54486e-09 0)
(-1 1.07801e-09 0)
(-1 -2.55687e-10 0)
(-1 6.06536e-11 0)
(-1 -1.43759e-11 0)
(-1 3.42109e-12 0)
(-1 -7.99599e-13 0)
(-1 2.01225e-13 0)
(-1 -3.68388e-14 0)
(-1 1.87532e-14 0)
(-1 4.57999e-15 0)
(-1 6.90029e-15 0)
(-1 5.3652e-15 0)
(-1 4.68603e-15 0)
(-1 3.73112e-15 0)
(-1 2.75604e-15 0)
(-1 1.75005e-15 0)
(-1 1.01205e-15 0)
(-1 2.64111e-16 0)
(-1 -1.91394e-08 0)
(-1 4.53983e-09 0)
(-1 -1.07683e-09 0)
(-1 2.55414e-10 0)
(-1 -6.05838e-11 0)
(-1 1.43689e-11 0)
(-1 -3.40756e-12 0)
(-1 8.10297e-13 0)
(-1 -1.8876e-13 0)
(-1 4.9093e-14 0)
(-1 -6.87548e-15 0)
(-1 6.4595e-15 0)
(-1 3.13237e-15 0)
(-1 3.72189e-15 0)
(-1 3.25914e-15 0)
(-1 2.7012e-15 0)
(-1 2.00732e-15 0)
(-1 1.34323e-15 0)
(-1 7.88899e-16 0)
(-1 2.18625e-16 0)
(-1 1.91187e-08 0)
(-1 -4.53503e-09 0)
(-1 1.07568e-09 0)
(-1 -2.55161e-10 0)
(-1 6.05075e-11 0)
(-1 -1.43648e-11 0)
(-1 3.39723e-12 0)
(-1 -8.12848e-13 0)
(-1 1.88504e-13 0)
(-1 -4.67429e-14 0)
(-1 1.08065e-14 0)
(-1 -1.59692e-15 0)
(-1 2.06514e-15 0)
(-1 1.51783e-15 0)
(-1 1.713e-15 0)
(-1 1.64299e-15 0)
(-1 1.36523e-15 0)
(-1 9.19306e-16 0)
(-1 5.07257e-16 0)
(-1 1.38546e-16 0)
(-1 -1.90985e-08 0)
(-1 4.53027e-09 0)
(-1 -1.07459e-09 0)
(-1 2.54863e-10 0)
(-1 -6.04807e-11 0)
(-1 1.43202e-11 0)
(-1 -3.41802e-12 0)
(-1 7.94547e-13 0)
(-1 -2.00075e-13 0)
(-1 3.97806e-14 0)
(-1 -1.40367e-14 0)
(-1 9.40552e-16 0)
(-1 -1.13378e-15 0)
(-1 3.00894e-16 0)
(-1 4.33678e-16 0)
(-1 7.64945e-16 0)
(-1 7.54075e-16 0)
(-1 4.77033e-16 0)
(-1 3.76749e-16 0)
(-1 1.20084e-16 0)
(-1 1.90799e-08 0)
(-1 -4.52583e-09 0)
(-1 1.07348e-09 0)
(-1 -2.5467e-10 0)
(-1 6.03605e-11 0)
(-1 -1.43585e-11 0)
(-1 3.3728e-12 0)
(-1 -8.25322e-13 0)
(-1 1.77305e-13 0)
(-1 -5.48516e-14 0)
(-1 4.59266e-15 0)
(-1 -6.27349e-15 0)
(-1 -1.4508e-15 0)
(-1 -1.10716e-15 0)
(-1 -2.25172e-16 0)
(-1 7.83875e-17 0)
(-1 2.41379e-16 0)
(-1 2.61574e-16 0)
(-1 2.61521e-16 0)
(-1 6.14212e-17 0)
(-1 -1.90607e-08 0)
(-1 4.52128e-09 0)
(-1 -1.07251e-09 0)
(-1 2.54322e-10 0)
(-1 -6.03977e-11 0)
(-1 1.42677e-11 0)
(-1 -3.43013e-12 0)
(-1 7.80272e-13 0)
(-1 -2.08892e-13 0)
(-1 3.3194e-14 0)
(-1 -1.87044e-14 0)
(-1 -2.47086e-15 0)
(-1 -3.75832e-15 0)
(-1 -1.7131e-15 0)
(-1 -9.97919e-16 0)
(-1 -4.23896e-16 0)
(-1 -8.22889e-17 0)
(-1 4.36504e-18 0)
(-1 -2.91702e-17 0)
(-1 -3.98487e-17 0)
(-1 1.90446e-08 0)
(-1 -4.51739e-09 0)
(-1 1.07137e-09 0)
(-1 -2.54249e-10 0)
(-1 6.01957e-11 0)
(-1 -1.43591e-11 0)
(-1 3.3484e-12 0)
(-1 -8.33452e-13 0)
(-1 1.71071e-13 0)
(-1 -5.83802e-14 0)
(-1 2.08571e-15 0)
(-1 -8.13597e-15 0)
(-1 -2.98398e-15 0)
(-1 -2.35569e-15 0)
(-1 -1.25047e-15 0)
(-1 -6.92724e-16 0)
(-1 -3.29401e-16 0)
(-1 -2.06993e-16 0)
(-1 -1.3484e-16 0)
(-1 -6.63679e-17 0)
(-1 -1.90272e-08 0)
(-1 4.51319e-09 0)
(-1 -1.0709e-09 0)
(-1 2.53801e-10 0)
(-1 -6.0369e-11 0)
(-1 1.42249e-11 0)
(-1 -3.43748e-12 0)
(-1 7.76442e-13 0)
(-1 -2.09673e-13 0)
(-1 3.33977e-14 0)
(-1 -1.86619e-14 0)
(-1 -2.57714e-15 0)
(-1 -3.86002e-15 0)
(-1 -1.86437e-15 0)
(-1 -1.26138e-15 0)
(-1 -6.21549e-16 0)
(-1 -3.76211e-16 0)
(-1 -2.56567e-16 0)
(-1 -1.26612e-16 0)
(-1 -4.46343e-17 0)
(-1 1.90163e-08 0)
(-1 -4.51104e-09 0)
(-1 1.06898e-09 0)
(-1 -2.5374e-10 0)
(-1 5.9967e-11 0)
(-1 -1.42975e-11 0)
(-1 3.33541e-12 0)
(-1 -8.19736e-13 0)
(-1 1.75473e-13 0)
(-1 -5.29718e-14 0)
(-1 5.15399e-15 0)
(-1 -6.05431e-15 0)
(-1 -1.73772e-15 0)
(-1 -1.58387e-15 0)
(-1 -8.87517e-16 0)
(-1 -5.07274e-16 0)
(-1 -2.34969e-16 0)
(-1 -1.91255e-16 0)
(-1 -7.95681e-17 0)
(-1 -5.10858e-17 0)
(-1 -1.9004e-08 0)
(-1 4.50899e-09 0)
(-1 -1.07057e-09 0)
(-1 2.53968e-10 0)
(-1 -6.03884e-11 0)
(-1 1.43068e-11 0)
(-1 -3.41967e-12 0)
(-1 8.01624e-13 0)
(-1 -1.97478e-13 0)
(-1 4.2885e-14 0)
(-1 -1.28289e-14 0)
(-1 1.37675e-15 0)
(-1 -1.44388e-15 0)
(-1 -3.62994e-16 0)
(-1 -3.8441e-16 0)
(-1 -2.23771e-16 0)
(-1 -8.59293e-17 0)
(-1 -2.70522e-17 0)
(-1 -5.60346e-18 0)
(-1 -4.42442e-17 0)
)
;

boundaryField
{
    movingWall
    {
        type            fixedValue;
        value           uniform (-1 -0 -0);
    }
    fixedWalls
    {
        type            calculated;
        value           nonuniform List<vector> 
60
(
(-1 7.8125e-09 0)
(-1 -7.80974e-09 0)
(-1 7.79175e-09 0)
(-1 -7.77331e-09 0)
(-1 7.75096e-09 0)
(-1 -7.7318e-09 0)
(-1 7.71314e-09 0)
(-1 -7.69834e-09 0)
(-1 7.68496e-09 0)
(-1 -7.67425e-09 0)
(-1 7.66445e-09 0)
(-1 -7.65574e-09 0)
(-1 7.64748e-09 0)
(-1 -7.6394e-09 0)
(-1 7.63195e-09 0)
(-1 -7.6243e-09 0)
(-1 7.61783e-09 0)
(-1 -7.61087e-09 0)
(-1 7.60652e-09 0)
(-1 -7.60159e-09 0)
(-1 2.87101e-17 0)
(-1 8.1751e-17 0)
(-1 1.31981e-16 0)
(-1 1.82247e-16 0)
(-1 2.00499e-16 0)
(-1 2.39225e-16 0)
(-1 2.25296e-16 0)
(-1 1.74225e-16 0)
(-1 1.75324e-16 0)
(-1 1.39182e-16 0)
(-1 1.05645e-16 0)
(-1 8.74501e-17 0)
(-1 5.54183e-17 0)
(-1 4.80334e-17 0)
(-1 2.45685e-17 0)
(-1 -1.59395e-17 0)
(-1 -2.65472e-17 0)
(-1 -1.78537e-17 0)
(-1 -2.04343e-17 0)
(-1 -1.76977e-17 0)
(-1 7.8125e-09 0)
(-1 -1.85499e-09 0)
(-1 4.40852e-10 0)
(-1 -1.04578e-10 0)
(-1 2.49173e-11 0)
(-1 -5.8912e-12 0)
(-1 1.41696e-12 0)
(-1 -3.27687e-13 0)
(-1 8.383e-14 0)
(-1 -1.60206e-14 0)
(-1 6.56886e-15 0)
(-1 3.84512e-16 0)
(-1 1.30555e-15 0)
(-1 6.90097e-16 0)
(-1 5.36209e-16 0)
(-1 3.60414e-16 0)
(-1 2.61699e-16 0)
(-1 1.94077e-16 0)
(-1 1.00899e-16 0)
(-1 2.87101e-17 0)
)
;
    }
    frontAndBack
    {
        type            empty;
    }
}


// ************************************************************************* //
