/*--------------------------------*- C++ -*----------------------------------*\
| =========                 |                                                 |
| \\      /  F ield         | OpenFOAM: The Open Source CFD Toolbox           |
|  \\    /   O peration     | Version:  2506                                  |
|   \\  /    A nd           | Website:  www.openfoam.com                      |
|    \\/     M anipulation  |                                                 |
\*---------------------------------------------------------------------------*/
FoamFile
{
    version     2.0;
    format      ascii;
    arch        "LSB;label=32;scalar=64";
    class       volVectorField;
    location    "4.375";
    object      vorticityField;
}
// * * * * * * * * * * * * * * * * * * * * * * * * * * * * * * * * * * * * * //

dimensions      [0 0 -1 0 0 0 0];

internalField   nonuniform List<vector> 
400
(
(0 -0 1.48759e-06)
(0 -0 -1.84388e-06)
(0 -0 4.37999e-07)
(0 -0 -1.04308e-07)
(0 -0 2.47109e-08)
(0 -0 -5.93924e-09)
(0 -0 1.37939e-09)
(0 -0 -3.51443e-10)
(0 -0 6.86739e-11)
(0 -0 -2.68776e-11)
(0 -0 -8.86048e-13)
(0 -0 -4.9208e-12)
(0 -0 -2.36306e-12)
(0 -0 -1.87285e-12)
(0 -0 -1.19373e-12)
(0 -0 -7.73359e-13)
(0 -0 -3.9395e-13)
(0 -0 -2.29935e-13)
(0 -0 -9.55517e-14)
(0 -0 -3.24023e-14)
(0 -0 -1.48084e-06)
(0 -0 1.84241e-06)
(0 -0 -4.37686e-07)
(0 -0 1.03972e-07)
(0 -0 -2.46994e-08)
(0 -0 5.86709e-09)
(0 -0 -1.39398e-09)
(0 -0 3.30968e-10)
(0 -0 -7.8681e-11)
(0 -0 1.87554e-11)
(0 -0 -4.45493e-12)
(0 -0 9.54172e-13)
(0 -0 -3.58952e-13)
(0 -0 -1.85971e-14)
(0 -0 -1.05237e-13)
(0 -0 -7.70745e-14)
(0 -0 -5.92544e-14)
(0 -0 -6.69492e-14)
(0 -0 -1.43142e-13)
(0 -0 -9.46016e-14)
(0 -0 1.47981e-06)
(0 -0 -1.83715e-06)
(0 -0 4.35968e-07)
(0 -0 -1.03453e-07)
(0 -0 2.45487e-08)
(0 -0 -5.82563e-09)
(0 -0 1.38212e-09)
(0 -0 -3.28272e-10)
(0 -0 7.7549e-11)
(0 -0 -1.87785e-11)
(0 -0 4.16709e-12)
(0 -0 -1.22194e-12)
(0 -0 3.11579e-14)
(0 -0 -2.67144e-13)
(0 -0 -1.7174e-13)
(0 -0 -2.25728e-13)
(0 -0 -2.53309e-13)
(0 -0 -1.65927e-13)
(0 -0 -1.5614e-13)
(0 -0 -1.43465e-13)
(0 -0 -1.48317e-06)
(0 -0 1.83425e-06)
(0 -0 -4.35171e-07)
(0 -0 1.03238e-07)
(0 -0 -2.44919e-08)
(0 -0 5.81015e-09)
(0 -0 -1.37859e-09)
(0 -0 3.26807e-10)
(0 -0 -7.78199e-11)
(0 -0 1.8144e-11)
(0 -0 -4.64154e-12)
(0 -0 7.94229e-13)
(0 -0 -5.08489e-13)
(0 -0 -1.8768e-13)
(0 -0 -2.12995e-13)
(0 -0 -2.09931e-13)
(0 -0 -2.42699e-13)
(0 -0 -2.23303e-13)
(0 -0 -1.68239e-13)
(0 -0 -1.86716e-13)
(0 -0 1.48141e-06)
(0 -0 -1.82944e-06)
(0 -0 4.33963e-07)
(0 -0 -1.02935e-07)
(0 -0 2.44157e-08)
(0 -0 -5.79163e-09)
(0 -0 1.37344e-09)
(0 -0 -3.26074e-10)
(0 -0 7.71079e-11)
(0 -0 -1.85302e-11)
(0 -0 4.10542e-12)
(0 -0 -1.27946e-12)
(0 -0 -2.80363e-14)
(0 -0 -3.0637e-13)
(0 -0 -2.23961e-13)
(0 -0 -2.52974e-13)
(0 -0 -2.68047e-13)
(0 -0 -2.64954e-13)
(0 -0 -2.15192e-13)
(0 -0 -2.67735e-13)
(0 -0 -1.47907e-06)
(0 -0 1.82517e-06)
(0 -0 -4.32919e-07)
(0 -0 1.02679e-07)
(0 -0 -2.43541e-08)
(0 -0 5.77589e-09)
(0 -0 -1.37038e-09)
(0 -0 3.24621e-10)
(0 -0 -7.73786e-11)
(0 -0 1.79495e-11)
(0 -0 -4.6296e-12)
(0 -0 7.71003e-13)
(0 -0 -5.16903e-13)
(0 -0 -1.61821e-13)
(0 -0 -3.02528e-13)
(0 -0 -2.53247e-13)
(0 -0 -2.8102e-13)
(0 -0 -3.08222e-13)
(0 -0 -2.27264e-13)
(0 -0 -2.11774e-13)
(0 -0 1.47527e-06)
(0 -0 -1.82069e-06)
(0 -0 4.31847e-07)
(0 -0 -1.02424e-07)
(0 -0 2.42921e-08)
(0 -0 -5.76199e-09)
(0 -0 1.36619e-09)
(0 -0 -3.24371e-10)
(0 -0 7.65911e-11)
(0 -0 -1.84804e-11)
(0 -0 4.09272e-12)
(0 -0 -1.34638e-12)
(0 -0 6.25002e-14)
(0 -0 -2.78509e-13)
(0 -0 -1.80529e-13)
(0 -0 -1.83986e-13)
(0 -0 -2.39172e-13)
(0 -0 -1.94345e-13)
(0 -0 -2.68756e-13)
(0 -0 -2.14105e-13)
(0 -0 -1.47181e-06)
(0 -0 1.81706e-06)
(0 -0 -4.30991e-07)
(0 -0 1.02221e-07)
(0 -0 -2.42451e-08)
(0 -0 5.75029e-09)
(0 -0 -1.36411e-09)
(0 -0 3.23248e-10)
(0 -0 -7.7008e-11)
(0 -0 1.80304e-11)
(0 -0 -4.53717e-12)
(0 -0 8.01169e-13)
(0 -0 -4.76393e-13)
(0 -0 -1.68399e-13)
(0 -0 -2.6602e-13)
(0 -0 -2.76117e-13)
(0 -0 -2.66062e-13)
(0 -0 -2.82312e-13)
(0 -0 -2.65604e-13)
(0 -0 -2.43955e-13)
(0 -0 1.4683e-06)
(0 -0 -1.8137e-06)
(0 -0 4.30205e-07)
(0 -0 -1.02038e-07)
(0 -0 2.4202e-08)
(0 -0 -5.74072e-09)
(0 -0 1.36142e-09)
(0 -0 -3.23151e-10)
(0 -0 7.64119e-11)
(0 -0 -1.84336e-11)
(0 -0 4.06675e-12)
(0 -0 -1.2069e-12)
(0 -0 -5.15467e-14)
(0 -0 -3.90204e-13)
(0 -0 -2.36146e-13)
(0 -0 -2.80034e-13)
(0 -0 -1.91248e-13)
(0 -0 -2.15441e-13)
(0 -0 -1.7034e-13)
(0 -0 -1.75121e-13)
(0 -0 -1.46549e-06)
(0 -0 1.81103e-06)
(0 -0 -4.29585e-07)
(0 -0 1.01894e-07)
(0 -0 -2.41689e-08)
(0 -0 5.73254e-09)
(0 -0 -1.35999e-09)
(0 -0 3.22295e-10)
(0 -0 -7.67462e-11)
(0 -0 1.78358e-11)
(0 -0 -4.51199e-12)
(0 -0 8.65587e-13)
(0 -0 -4.47895e-13)
(0 -0 -1.90439e-13)
(0 -0 -2.52556e-13)
(0 -0 -1.90341e-13)
(0 -0 -1.85245e-13)
(0 -0 -2.07025e-13)
(0 -0 -1.61142e-13)
(0 -0 -1.92644e-13)
(0 -0 1.46296e-06)
(0 -0 -1.80859e-06)
(0 -0 4.29015e-07)
(0 -0 -1.01762e-07)
(0 -0 2.41376e-08)
(0 -0 -5.72569e-09)
(0 -0 1.35804e-09)
(0 -0 -3.22231e-10)
(0 -0 7.6276e-11)
(0 -0 -1.82472e-11)
(0 -0 4.14188e-12)
(0 -0 -1.18529e-12)
(0 -0 1.59836e-13)
(0 -0 -1.67216e-13)
(0 -0 -1.09198e-13)
(0 -0 -1.92999e-13)
(0 -0 -1.98107e-13)
(0 -0 -1.74399e-13)
(0 -0 -1.75699e-13)
(0 -0 -1.27616e-13)
(0 -0 -1.46088e-06)
(0 -0 1.80645e-06)
(0 -0 -4.28512e-07)
(0 -0 1.01643e-07)
(0 -0 -2.41099e-08)
(0 -0 5.71879e-09)
(0 -0 -1.35667e-09)
(0 -0 3.21636e-10)
(0 -0 -7.63915e-11)
(0 -0 1.80258e-11)
(0 -0 -4.37178e-12)
(0 -0 9.1947e-13)
(0 -0 -3.27971e-13)
(0 -0 3.97818e-14)
(0 -0 -1.02069e-13)
(0 -0 -1.25181e-13)
(0 -0 -1.35797e-13)
(0 -0 -6.76322e-14)
(0 -0 -1.12461e-13)
(0 -0 -7.36474e-14)
(0 -0 1.45899e-06)
(0 -0 -1.80443e-06)
(0 -0 4.28035e-07)
(0 -0 -1.0153e-07)
(0 -0 2.40827e-08)
(0 -0 -5.71249e-09)
(0 -0 1.35496e-09)
(0 -0 -3.21496e-10)
(0 -0 7.61769e-11)
(0 -0 -1.82306e-11)
(0 -0 4.16223e-12)
(0 -0 -1.14519e-12)
(0 -0 4.0425e-14)
(0 -0 -1.70739e-13)
(0 -0 -6.87993e-14)
(0 -0 -1.16093e-13)
(0 -0 -1.53684e-13)
(0 -0 -1.67112e-13)
(0 -0 -1.32286e-13)
(0 -0 -6.45802e-14)
(0 -0 -1.45717e-06)
(0 -0 1.80246e-06)
(0 -0 -4.27564e-07)
(0 -0 1.01417e-07)
(0 -0 -2.40559e-08)
(0 -0 5.706e-09)
(0 -0 -1.35352e-09)
(0 -0 3.2109e-10)
(0 -0 -7.61813e-11)
(0 -0 1.81159e-11)
(0 -0 -4.3719e-12)
(0 -0 9.37925e-13)
(0 -0 -2.26596e-13)
(0 -0 -5.88481e-15)
(0 -0 -6.20151e-14)
(0 -0 3.20397e-14)
(0 -0 -2.87912e-14)
(0 -0 -1.06276e-14)
(0 -0 -3.5695e-14)
(0 -0 -4.96833e-14)
(0 -0 1.45565e-06)
(0 -0 -1.80067e-06)
(0 -0 4.27133e-07)
(0 -0 -1.01313e-07)
(0 -0 2.40309e-08)
(0 -0 -5.70002e-09)
(0 -0 1.35204e-09)
(0 -0 -3.20742e-10)
(0 -0 7.6017e-11)
(0 -0 -1.79759e-11)
(0 -0 4.36992e-12)
(0 -0 -8.75397e-13)
(0 -0 2.99793e-13)
(0 -0 -1.29623e-14)
(0 -0 3.72391e-14)
(0 -0 4.66552e-14)
(0 -0 -9.01016e-14)
(0 -0 5.62243e-14)
(0 -0 -2.00153e-14)
(0 -0 -3.22943e-14)
(0 -0 -1.4539e-06)
(0 -0 1.79879e-06)
(0 -0 -4.26682e-07)
(0 -0 1.01205e-07)
(0 -0 -2.4005e-08)
(0 -0 5.69383e-09)
(0 -0 -1.35059e-09)
(0 -0 3.20307e-10)
(0 -0 -7.59546e-11)
(0 -0 1.80158e-11)
(0 -0 -4.217e-12)
(0 -0 9.52503e-13)
(0 -0 -2.49485e-13)
(0 -0 5.91998e-14)
(0 -0 -3.37103e-14)
(0 -0 -9.81723e-14)
(0 -0 1.57211e-14)
(0 -0 -4.88982e-14)
(0 -0 -4.42138e-15)
(0 -0 6.90189e-15)
(0 -0 1.45295e-06)
(0 -0 -1.79731e-06)
(0 -0 4.26325e-07)
(0 -0 -1.01119e-07)
(0 -0 2.39841e-08)
(0 -0 -5.68888e-09)
(0 -0 1.34934e-09)
(0 -0 -3.20037e-10)
(0 -0 7.59351e-11)
(0 -0 -1.80098e-11)
(0 -0 4.29259e-12)
(0 -0 -1.04907e-12)
(0 -0 1.71452e-13)
(0 -0 -9.76992e-14)
(0 -0 3.07712e-14)
(0 -0 1.07919e-14)
(0 -0 4.85731e-14)
(0 -0 -6.18591e-14)
(0 -0 1.40625e-14)
(0 -0 2.01208e-14)
(0 -0 -1.45098e-06)
(0 -0 1.79552e-06)
(0 -0 -4.25899e-07)
(0 -0 1.01017e-07)
(0 -0 -2.39598e-08)
(0 -0 5.68299e-09)
(0 -0 -1.34793e-09)
(0 -0 3.19664e-10)
(0 -0 -7.58494e-11)
(0 -0 1.79356e-11)
(0 -0 -4.30222e-12)
(0 -0 9.92299e-13)
(0 -0 -1.99774e-13)
(0 -0 7.01293e-14)
(0 -0 -1.12429e-14)
(0 -0 3.43063e-14)
(0 -0 -4.4817e-14)
(0 -0 -2.14511e-15)
(0 -0 -5.91178e-15)
(0 -0 1.71246e-14)
(0 -0 1.45237e-06)
(0 -0 -1.79633e-06)
(0 -0 4.26407e-07)
(0 -0 -1.01212e-07)
(0 -0 2.40243e-08)
(0 -0 -5.70241e-09)
(0 -0 1.3536e-09)
(0 -0 -3.21252e-10)
(0 -0 7.63241e-11)
(0 -0 -1.80619e-11)
(0 -0 4.23096e-12)
(0 -0 -1.06864e-12)
(0 -0 2.30204e-13)
(0 -0 -5.05053e-14)
(0 -0 -7.60456e-16)
(0 -0 3.81497e-14)
(0 -0 4.49679e-15)
(0 -0 4.26452e-14)
(0 -0 4.1122e-14)
(0 -0 -1.40397e-14)
(0 -0 -1.45231e-06)
(0 -0 1.7951e-06)
(0 -0 -4.26282e-07)
(0 -0 1.01362e-07)
(0 -0 -2.40506e-08)
(0 -0 5.74689e-09)
(0 -0 -1.3529e-09)
(0 -0 3.31516e-10)
(0 -0 -7.33803e-11)
(0 -0 2.10941e-11)
(0 -0 -2.79557e-12)
(0 -0 2.11428e-12)
(0 -0 3.68126e-13)
(0 -0 4.31207e-13)
(0 -0 2.03658e-13)
(0 -0 1.11163e-13)
(0 -0 7.3882e-14)
(0 -0 8.03259e-15)
(0 -0 -1.7192e-15)
(0 -0 3.20898e-14)
)
;

boundaryField
{
    movingWall
    {
        type            calculated;
        value           nonuniform List<vector> 
20
(
(0 -0 -1.46409e-06)
(0 -0 1.80159e-06)
(0 -0 -4.28962e-07)
(0 -0 1.02462e-07)
(0 -0 -2.43547e-08)
(0 -0 5.88042e-09)
(0 -0 -1.37539e-09)
(0 -0 3.49664e-10)
(0 -0 -7.21436e-11)
(0 -0 2.48598e-11)
(0 -0 -1.21983e-12)
(0 -0 3.31454e-12)
(0 -0 9.80657e-13)
(0 -0 8.60898e-13)
(0 -0 5.02421e-13)
(0 -0 2.07484e-13)
(0 -0 1.52899e-13)
(0 -0 -8.07853e-14)
(0 -0 -1.7192e-15)
(0 -0 9.38026e-14)
)
;
    }
    fixedWalls
    {
        type            calculated;
        value           nonuniform List<vector> 
60
(
(0 -0 7.81072e-06)
(0 -0 -7.80207e-06)
(0 -0 7.78602e-06)
(0 -0 -7.77417e-06)
(0 -0 7.75416e-06)
(0 -0 -7.73624e-06)
(0 -0 7.71735e-06)
(0 -0 -7.70195e-06)
(0 -0 7.68764e-06)
(0 -0 -7.67622e-06)
(0 -0 7.66579e-06)
(0 -0 -7.65667e-06)
(0 -0 7.6481e-06)
(0 -0 -7.63975e-06)
(0 -0 7.6322e-06)
(0 -0 -7.62425e-06)
(0 -0 7.61806e-06)
(0 -0 -7.61045e-06)
(0 -0 7.60836e-06)
(0 -0 -7.6044e-06)
(0 -0 -2.87101e-14)
(0 -0 -8.1751e-14)
(0 -0 -1.31981e-13)
(0 -0 -1.82247e-13)
(0 -0 -2.54709e-13)
(0 -0 -2.1212e-13)
(0 -0 -1.98191e-13)
(0 -0 -2.0133e-13)
(0 -0 -1.48219e-13)
(0 -0 -1.66287e-13)
(0 -0 -1.05645e-13)
(0 -0 -6.0345e-14)
(0 -0 -5.54183e-14)
(0 -0 -4.80334e-14)
(0 -0 -2.45685e-14)
(0 -0 1.59395e-14)
(0 -0 2.65472e-14)
(0 -0 1.78537e-14)
(0 -0 -6.67073e-15)
(0 -0 4.48027e-14)
(0 -0 1.50218e-06)
(0 -0 -1.85102e-06)
(0 -0 4.40701e-07)
(0 -0 -1.05526e-07)
(0 -0 2.49724e-08)
(0 -0 -6.10099e-09)
(0 -0 1.38555e-09)
(0 -0 -3.8049e-10)
(0 -0 5.95758e-11)
(0 -0 -3.63683e-11)
(0 -0 -6.46804e-12)
(0 -0 -9.08739e-12)
(0 -0 -5.11945e-12)
(0 -0 -3.74505e-12)
(0 -0 -2.39168e-12)
(0 -0 -1.57853e-12)
(0 -0 -8.40945e-13)
(0 -0 -4.84289e-13)
(0 -0 -1.74568e-13)
(0 -0 -7.68112e-14)
)
;
    }
    frontAndBack
    {
        type            empty;
    }
}


// ************************************************************************* //
