/*--------------------------------*- C++ -*----------------------------------*\
| =========                 |                                                 |
| \\      /  F ield         | OpenFOAM: The Open Source CFD Toolbox           |
|  \\    /   O peration     | Version:  2506                                  |
|   \\  /    A nd           | Website:  www.openfoam.com                      |
|    \\/     M anipulation  |                                                 |
\*---------------------------------------------------------------------------*/
FoamFile
{
    version     2.0;
    format      ascii;
    arch        "LSB;label=32;scalar=64";
    class       volScalarField;
    location    "4.375";
    object      zeroGradient(epsilon);
}
// * * * * * * * * * * * * * * * * * * * * * * * * * * * * * * * * * * * * * //

dimensions      [0 2 -3 0 0 0 0];

internalField   nonuniform List<scalar> 
400
(
1.55394e-05
1.55393e-05
1.55392e-05
1.55392e-05
1.55391e-05
1.5539e-05
1.5539e-05
1.55389e-05
1.55389e-05
1.55388e-05
1.55388e-05
1.55388e-05
1.55388e-05
1.55387e-05
1.55387e-05
1.55387e-05
1.55387e-05
1.55387e-05
1.55387e-05
1.55387e-05
1.91484e-05
1.85958e-05
1.8639e-05
1.86573e-05
1.86936e-05
1.87126e-05
1.87492e-05
1.8769e-05
1.88058e-05
1.88265e-05
1.88635e-05
1.88851e-05
1.89224e-05
1.89447e-05
1.89823e-05
1.90054e-05
1.90434e-05
1.90673e-05
1.90865e-05
1.91178e-05
2.4087e-05
2.33243e-05
2.33842e-05
2.34097e-05
2.346e-05
2.34863e-05
2.35369e-05
2.35642e-05
2.3615e-05
2.36433e-05
2.36944e-05
2.37238e-05
2.37752e-05
2.38055e-05
2.38573e-05
2.38885e-05
2.39407e-05
2.39729e-05
2.39992e-05
2.40418e-05
2.83101e-05
2.7356e-05
2.74303e-05
2.7462e-05
2.75246e-05
2.75573e-05
2.76202e-05
2.76542e-05
2.77175e-05
2.77529e-05
2.78165e-05
2.78532e-05
2.79172e-05
2.79552e-05
2.80197e-05
2.80589e-05
2.8124e-05
2.81644e-05
2.81973e-05
2.82505e-05
3.1173e-05
3.00821e-05
3.01666e-05
3.02027e-05
3.02739e-05
3.03111e-05
3.03828e-05
3.04217e-05
3.04937e-05
3.05342e-05
3.06066e-05
3.06486e-05
3.07216e-05
3.07651e-05
3.08387e-05
3.08836e-05
3.09578e-05
3.10041e-05
3.10416e-05
3.11025e-05
3.28951e-05
3.17199e-05
3.18106e-05
3.18494e-05
3.19259e-05
3.1966e-05
3.2043e-05
3.20848e-05
3.21623e-05
3.22058e-05
3.22837e-05
3.2329e-05
3.24075e-05
3.24543e-05
3.25335e-05
3.25819e-05
3.26618e-05
3.27117e-05
3.27521e-05
3.28177e-05
3.38914e-05
3.26668e-05
3.27612e-05
3.28016e-05
3.28812e-05
3.29229e-05
3.3003e-05
3.30466e-05
3.31272e-05
3.31725e-05
3.32536e-05
3.33008e-05
3.33825e-05
3.34313e-05
3.35137e-05
3.35642e-05
3.36473e-05
3.36994e-05
3.37415e-05
3.38098e-05
3.44898e-05
3.32356e-05
3.33322e-05
3.33735e-05
3.34549e-05
3.34976e-05
3.35796e-05
3.36242e-05
3.37067e-05
3.37532e-05
3.38362e-05
3.38844e-05
3.39681e-05
3.40181e-05
3.41024e-05
3.41541e-05
3.42393e-05
3.42927e-05
3.43357e-05
3.44058e-05
3.48917e-05
3.36177e-05
3.37157e-05
3.37577e-05
3.38404e-05
3.38837e-05
3.3967e-05
3.40123e-05
3.4096e-05
3.41432e-05
3.42275e-05
3.42765e-05
3.43614e-05
3.44123e-05
3.44979e-05
3.45505e-05
3.46369e-05
3.46912e-05
3.47349e-05
3.4806e-05
3.52075e-05
3.39177e-05
3.40169e-05
3.40593e-05
3.4143e-05
3.41869e-05
3.42711e-05
3.43169e-05
3.44017e-05
3.44494e-05
3.45347e-05
3.45844e-05
3.46703e-05
3.47217e-05
3.48084e-05
3.48616e-05
3.49491e-05
3.50041e-05
3.50483e-05
3.51203e-05
3.54946e-05
3.41907e-05
3.4291e-05
3.43338e-05
3.44184e-05
3.44627e-05
3.45479e-05
3.45942e-05
3.46798e-05
3.47281e-05
3.48143e-05
3.48645e-05
3.49514e-05
3.50034e-05
3.5091e-05
3.51448e-05
3.52332e-05
3.52888e-05
3.53335e-05
3.54063e-05
3.57849e-05
3.44668e-05
3.4568e-05
3.46113e-05
3.46968e-05
3.47416e-05
3.48277e-05
3.48745e-05
3.4961e-05
3.50098e-05
3.50969e-05
3.51477e-05
3.52355e-05
3.52881e-05
3.53766e-05
3.5431e-05
3.55204e-05
3.55766e-05
3.56218e-05
3.56954e-05
3.60975e-05
3.4764e-05
3.48664e-05
3.49102e-05
3.49966e-05
3.50419e-05
3.5129e-05
3.51763e-05
3.52638e-05
3.53132e-05
3.54013e-05
3.54526e-05
3.55414e-05
3.55946e-05
3.56842e-05
3.57392e-05
3.58296e-05
3.58865e-05
3.59322e-05
3.60067e-05
3.64467e-05
3.50959e-05
3.51996e-05
3.52439e-05
3.53314e-05
3.53773e-05
3.54654e-05
3.55134e-05
3.5602e-05
3.5652e-05
3.57412e-05
3.57932e-05
3.58831e-05
3.5937e-05
3.60277e-05
3.60835e-05
3.6175e-05
3.62326e-05
3.6279e-05
3.63544e-05
3.68453e-05
3.54748e-05
3.55799e-05
3.56249e-05
3.57136e-05
3.57601e-05
3.58495e-05
3.58982e-05
3.59881e-05
3.60388e-05
3.61293e-05
3.6182e-05
3.62732e-05
3.63279e-05
3.64199e-05
3.64765e-05
3.65694e-05
3.66278e-05
3.66748e-05
3.67513e-05
3.73052e-05
3.59119e-05
3.60188e-05
3.60644e-05
3.61546e-05
3.62019e-05
3.62927e-05
3.63421e-05
3.64335e-05
3.6485e-05
3.6577e-05
3.66306e-05
3.67233e-05
3.67789e-05
3.68724e-05
3.693e-05
3.70243e-05
3.70838e-05
3.71316e-05
3.72094e-05
3.78291e-05
3.64095e-05
3.65183e-05
3.65648e-05
3.66566e-05
3.67047e-05
3.67972e-05
3.68475e-05
3.69405e-05
3.69931e-05
3.70867e-05
3.71413e-05
3.72357e-05
3.72924e-05
3.73876e-05
3.74462e-05
3.75423e-05
3.76029e-05
3.76516e-05
3.77308e-05
3.83865e-05
3.69397e-05
3.70503e-05
3.70977e-05
3.71911e-05
3.72402e-05
3.73343e-05
3.73856e-05
3.74803e-05
3.75339e-05
3.76293e-05
3.7685e-05
3.77811e-05
3.78389e-05
3.79359e-05
3.79957e-05
3.80936e-05
3.81555e-05
3.82051e-05
3.82859e-05
3.88846e-05
3.7446e-05
3.75535e-05
3.75999e-05
3.76913e-05
3.77396e-05
3.7832e-05
3.7883e-05
3.79762e-05
3.80299e-05
3.8124e-05
3.81803e-05
3.82756e-05
3.83343e-05
3.84308e-05
3.8492e-05
3.85899e-05
3.86535e-05
3.87033e-05
3.87852e-05
3.90927e-05
3.90918e-05
3.90923e-05
3.90912e-05
3.90921e-05
3.90908e-05
3.90918e-05
3.90906e-05
3.90914e-05
3.90906e-05
3.9091e-05
3.90907e-05
3.90907e-05
3.90907e-05
3.90907e-05
3.90907e-05
3.90906e-05
3.90906e-05
3.90906e-05
3.90906e-05
)
;

boundaryField
{
    movingWall
    {
        type            zeroGradient;
    }
    fixedWalls
    {
        type            zeroGradient;
    }
    frontAndBack
    {
        type            empty;
    }
}


// ************************************************************************* //
