/*--------------------------------*- C++ -*----------------------------------*\
| =========                 |                                                 |
| \\      /  F ield         | OpenFOAM: The Open Source CFD Toolbox           |
|  \\    /   O peration     | Version:  2506                                  |
|   \\  /    A nd           | Website:  www.openfoam.com                      |
|    \\/     M anipulation  |                                                 |
\*---------------------------------------------------------------------------*/
FoamFile
{
    version     2.0;
    format      ascii;
    arch        "LSB;label=32;scalar=64";
    class       volScalarField;
    location    "0.4";
    object      p;
}
// * * * * * * * * * * * * * * * * * * * * * * * * * * * * * * * * * * * * * //

dimensions      [0 2 -2 0 0 0 0];

internalField   nonuniform List<scalar> 
400
(
4.39391e-06
-0.00582218
-0.0129596
-0.0184116
-0.020429
-0.0182353
-0.0117709
-0.00148094
0.0118398
0.0271513
0.0432461
0.0588244
0.0725797
0.0833093
0.0900536
0.092268
0.0900271
0.0842456
0.0768827
0.0710694
0.00578322
-0.000215626
-0.00580125
-0.00953975
-0.0105961
-0.0084299
-0.00296726
0.00547659
0.0163051
0.0287137
0.0417516
0.0543876
0.0655879
0.0744113
0.0801216
0.0823172
0.081079
0.0770568
0.0712764
0.0653203
0.0133371
0.00503588
-0.000992963
-0.00442067
-0.00527044
-0.00326145
0.00160475
0.00902984
0.0185041
0.0293512
0.0407672
0.0518714
0.0617702
0.0696381
0.0748087
0.0768799
0.0758436
0.0720881
0.065808
0.0575383
0.020141
0.00869787
0.00122797
-0.00266632
-0.00371986
-0.00188305
0.00273351
0.00978674
0.0187824
0.029097
0.0399938
0.0506558
0.0602348
0.0679179
0.0730051
0.0750035
0.073768
0.0694585
0.0616056
0.0501056
0.0245033
0.00977487
0.000591784
-0.00398479
-0.00530006
-0.00350516
0.0011769
0.00833671
0.0174641
0.0279511
0.039087
0.0500718
0.0600508
0.0681671
0.0736285
0.0757999
0.0743713
0.0692923
0.0595284
0.0445404
0.0251791
0.00715176
-0.00380001
-0.00905504
-0.0105099
-0.00849772
-0.00335457
0.00443166
0.0143156
0.0256812
0.037816
0.0499054
0.0610502
0.0703052
0.0767368
0.0795192
0.0781414
0.0723362
0.0605422
0.0418935
0.0210948
-0.000260544
-0.0129324
-0.0187071
-0.0200274
-0.0174115
-0.0113159
-0.00231725
0.00899287
0.0219786
0.0359121
0.0499468
0.0631145
0.0743476
0.0825242
0.0865719
0.0857233
0.0794499
0.0656234
0.0430752
0.0111445
-0.0136162
-0.0278728
-0.0338518
-0.0346009
-0.0308548
-0.0232101
-0.0123424
0.00110759
0.0164866
0.0330553
0.0499363
0.066086
0.0802925
0.0912033
0.0974326
0.097873
0.0916389
0.0758994
0.04912
-0.00596499
-0.0342641
-0.0498675
-0.0555459
-0.0550873
-0.0495116
-0.0395904
-0.0261102
-0.00975398
0.00882609
0.028904
0.0495965
0.0698005
0.0881575
0.10305
0.112704
0.115553
0.110195
0.0928374
0.0614148
-0.0318544
-0.0638733
-0.080414
-0.0850042
-0.0824171
-0.0740752
-0.0609776
-0.0440332
-0.023948
-0.00133341
0.023149
0.0486644
0.0740989
0.0979755
0.118399
0.133129
0.139992
0.136821
0.118444
0.081937
-0.0686639
-0.1046
-0.121341
-0.123587
-0.117512
-0.105123
-0.0877147
-0.0663218
-0.0416332
-0.0141518
0.0156094
0.0469569
0.0788593
0.109797
0.137627
0.159589
0.17273
0.173781
0.155523
0.113574
-0.119398
-0.159353
-0.174911
-0.172753
-0.161144
-0.142925
-0.119755
-0.0927731
-0.0625734
-0.0294435
0.00637726
0.0444775
0.084059
0.123707
0.16114
0.193089
0.215671
0.22408
0.208053
0.160635
-0.188624
-0.232238
-0.243935
-0.233944
-0.21369
-0.18715
-0.156368
-0.122497
-0.0858937
-0.0464678
-0.00401004
0.0415432
0.0898463
0.139833
0.189323
0.234693
0.271078
0.291667
0.281746
0.229778
-0.283969
-0.3293
-0.331827
-0.308276
-0.274704
-0.236436
-0.19576
-0.153606
-0.109836
-0.0637405
-0.0144332
0.0388681
0.0965588
0.158281
0.222378
0.285292
0.341401
0.381578
0.384917
0.331837
-0.419313
-0.459666
-0.442346
-0.395788
-0.342125
-0.287735
-0.234611
-0.182925
-0.131604
-0.0789799
-0.023209
0.0374803
0.104558
0.178842
0.259866
0.344974
0.42862
0.499704
0.529678
0.485394
-0.620526
-0.636738
-0.578672
-0.494188
-0.411236
-0.335654
-0.267776
-0.205973
-0.147531
-0.0893776
-0.0284206
0.0383537
0.113812
0.200477
0.29998
0.412029
0.533034
0.651779
0.732775
0.722398
-0.935918
-0.87851
-0.741737
-0.597944
-0.474388
-0.372655
-0.288864
-0.217758
-0.153948
-0.0924584
-0.0287117
0.0417013
0.123269
0.220723
0.338931
0.482159
0.652001
0.841346
1.01527
1.09751
-1.47642
-1.20663
-0.920499
-0.691384
-0.517301
-0.38754
-0.290057
-0.213332
-0.148119
-0.0872101
-0.024572
0.0454632
0.128943
0.233076
0.367108
0.542683
0.771298
1.05932
1.40329
1.73014
-2.53964
-1.63054
-1.04443
-0.710955
-0.495747
-0.352089
-0.254527
-0.183579
-0.126164
-0.0735899
-0.0192635
0.0427926
0.119218
0.218788
0.354818
0.547989
0.826398
1.23659
1.91168
2.9242
-4.36666
-2.04463
-0.973538
-0.563177
-0.357843
-0.240143
-0.170116
-0.123779
-0.0874768
-0.0535053
-0.016649
0.0276665
0.0846135
0.161736
0.272417
0.442105
0.718224
1.22571
2.41104
4.84854
)
;

boundaryField
{
    movingWall
    {
        type            zeroGradient;
    }
    fixedWalls
    {
        type            zeroGradient;
    }
    frontAndBack
    {
        type            empty;
    }
}


// ************************************************************************* //
