/*--------------------------------*- C++ -*----------------------------------*\
| =========                 |                                                 |
| \\      /  F ield         | OpenFOAM: The Open Source CFD Toolbox           |
|  \\    /   O peration     | Version:  2506                                  |
|   \\  /    A nd           | Website:  www.openfoam.com                      |
|    \\/     M anipulation  |                                                 |
\*---------------------------------------------------------------------------*/
FoamFile
{
    version     2.0;
    format      ascii;
    arch        "LSB;label=32;scalar=64";
    class       volVectorField;
    location    "0.75";
    object      LambVectorField;
}
// * * * * * * * * * * * * * * * * * * * * * * * * * * * * * * * * * * * * * //

dimensions      [0 1 -2 0 0 0 0];

internalField   nonuniform List<vector> 
400
(
(-1.73194e-05 -1.70984e-05 0)
(-0.000139911 -0.000234904 0)
(-0.000351632 -0.00103192 0)
(-0.000562835 -0.00253213 0)
(-0.00073508 -0.00475753 0)
(-0.000853169 -0.00756806 0)
(-0.000910885 -0.0107494 0)
(-0.000901783 -0.0140472 0)
(-0.000814496 -0.0171733 0)
(-0.000633304 -0.0198323 0)
(-0.00036071 -0.0216393 0)
(-2.39909e-05 -0.0222773 0)
(0.000419502 -0.0214989 -0)
(0.000853206 -0.0192018 -0)
(0.00120253 -0.0155665 -0)
(0.0013666 -0.0111119 -0)
(0.0012702 -0.00664958 -0)
(0.000915502 -0.00305898 -0)
(0.000422218 -0.000842795 -0)
(9.30515e-05 -9.56525e-05 -0)
(-0.000237496 -0.000139324 0)
(-0.000351802 -0.000347792 0)
(-0.000347884 -0.000517533 0)
(-0.000306053 -0.000640677 0)
(-0.000271788 -0.000770059 0)
(-0.000250485 -0.000935872 0)
(-0.00023387 -0.0011372 0)
(-0.000212466 -0.0013499 0)
(-0.000179435 -0.00153831 0)
(-0.000131491 -0.00166589 0)
(-7.11801e-05 -0.0017323 0)
(-1.61419e-07 -0.00170864 0)
(7.66869e-05 -0.00161488 -0)
(0.000159171 -0.00151029 -0)
(0.000254643 -0.00142574 -0)
(0.000378655 -0.00137633 -0)
(0.000543139 -0.00132802 -0)
(0.000725438 -0.0011936 -0)
(0.00081329 -0.000853217 -0)
(0.000844173 -0.000442397 -0)
(-0.00103629 -0.000360622 0)
(-0.000548777 -0.000369825 0)
(-0.000407034 -0.000410541 0)
(-0.000282405 -0.000390976 0)
(-0.000183731 -0.000335362 0)
(-0.000115937 -0.00027336 0)
(-7.27743e-05 -0.000220232 0)
(-4.54394e-05 -0.000178214 0)
(-2.6827e-05 -0.00014134 0)
(-1.35172e-05 -0.000104689 0)
(-5.04762e-06 -7.38974e-05 0)
(-1.88597e-07 -5.99589e-05 0)
(6.6787e-06 -9.45337e-05 -0)
(3.29639e-05 -0.000208483 -0)
(0.00010871 -0.000408961 -0)
(0.000269413 -0.000666527 -0)
(0.000536346 -0.000904806 -0)
(0.000887025 -0.00101309 -0)
(0.00129866 -0.000926961 -0)
(0.00339275 -0.00108985 -0)
(-0.00258927 -0.000608298 0)
(-0.000727134 -0.000360842 0)
(-0.000446832 -0.000339157 0)
(-0.000282691 -0.000294239 0)
(-0.000156249 -0.000212427 0)
(-6.45405e-05 -0.000112148 0)
(-4.40242e-06 -9.72699e-06 0)
(2.9872e-05 8.48551e-05 0)
(4.41816e-05 0.000167162 0)
(4.23782e-05 0.000232276 0)
(2.69922e-05 0.000267591 0)
(3.67755e-06 0.00025243 0)
(-1.29785e-05 0.000159204 -0)
(6.26296e-06 -3.23991e-05 -0)
(0.000102917 -0.000312927 -0)
(0.000317538 -0.000632846 -0)
(0.000669735 -0.000906399 -0)
(0.00114897 -0.00103974 -0)
(0.00196136 -0.00107268 -0)
(0.00858627 -0.00196564 -0)
(-0.00504671 -0.000861613 0)
(-0.000948007 -0.000364641 0)
(-0.000489993 -0.000296162 0)
(-0.000293958 -0.000245761 0)
(-0.000152748 -0.000166716 0)
(-4.71325e-05 -6.54448e-05 0)
(2.52141e-05 4.42381e-05 0)
(6.68491e-05 0.000149648 0)
(8.1522e-05 0.00024046 0)
(7.28695e-05 0.000305023 0)
(4.53638e-05 0.000324055 0)
(9.96736e-06 0.000271187 0)
(-9.06908e-06 0.000118713 -0)
(2.99607e-05 -0.000145288 -0)
(0.000179544 -0.000495508 -0)
(0.000483418 -0.000860475 -0)
(0.000957682 -0.00114052 -0)
(0.00162184 -0.00126532 -0)
(0.0030758 -0.00139828 -0)
(0.0176957 -0.0031746 -0)
(-0.00847397 -0.00112031 0)
(-0.00125766 -0.000391594 0)
(-0.000561479 -0.000281267 0)
(-0.000325014 -0.000227574 0)
(-0.000170707 -0.000156496 0)
(-5.50156e-05 -6.40505e-05 0)
(2.69507e-05 3.94558e-05 0)
(7.57761e-05 0.000140446 0)
(9.30436e-05 0.000224321 0)
(8.16966e-05 0.000272664 0)
(4.83836e-05 0.000258603 0)
(1.0448e-05 0.000146669 0)
(5.11527e-06 -9.4861e-05 -0)
(9.22451e-05 -0.000470927 -0)
(0.000340282 -0.000930239 -0)
(0.000795439 -0.0013615 -0)
(0.00146894 -0.00164292 -0)
(0.00243873 -0.00174173 -0)
(0.00498904 -0.00199596 -0)
(0.0325022 -0.00487197 -0)
(-0.0129277 -0.00139359 0)
(-0.00169222 -0.000442404 0)
(-0.000679936 -0.000291177 0)
(-0.000384619 -0.000232296 0)
(-0.000211695 -0.00016794 0)
(-8.52154e-05 -8.57502e-05 0)
(5.73366e-06 7.22074e-06 0)
(6.11224e-05 9.66072e-05 0)
(8.06428e-05 0.000163355 0)
(6.65302e-05 0.000181468 0)
(2.74151e-05 0.000112394 0)
(-1.13781e-05 -9.54668e-05 0)
(6.73708e-06 -0.000485727 -0)
(0.000171332 -0.00105257 -0)
(0.000574775 -0.00168666 -0)
(0.00125153 -0.0021882 -0)
(0.0021886 -0.00241317 -0)
(0.0035581 -0.00242067 -0)
(0.00795387 -0.00287556 -0)
(0.0554947 -0.00702758 -0)
(-0.0184913 -0.00169398 0)
(-0.00228154 -0.000516384 0)
(-0.000859394 -0.000322643 0)
(-0.000478655 -0.00025502 0)
(-0.000275199 -0.000192951 0)
(-0.000132585 -0.000117672 0)
(-3.09199e-05 -3.41436e-05 0)
(3.03802e-05 4.16737e-05 0)
(4.91623e-05 8.49751e-05 0)
(2.65398e-05 5.99643e-05 0)
(-2.84153e-05 -9.08365e-05 0)
(-8.13328e-05 -0.000445657 0)
(-4.83043e-05 -0.00106988 0)
(0.000208474 -0.00194315 -0)
(0.000823949 -0.00284631 -0)
(0.00180128 -0.00339873 -0)
(0.00309098 -0.00347457 -0)
(0.00507837 -0.003338 -0)
(0.0122402 -0.00388866 -0)
(0.0887049 -0.00841954 -0)
(-0.0252895 -0.00203633 0)
(-0.00305256 -0.000613888 0)
(-0.00111004 -0.000373168 0)
(-0.000608475 -0.000291181 0)
(-0.000355471 -0.000223772 0)
(-0.000185887 -0.000147536 0)
(-6.8479e-05 -6.70963e-05 0)
(-7.26047e-07 -8.72688e-07 0)
(1.32804e-05 1.97283e-05 0)
(-2.94376e-05 -5.54059e-05 0)
(-0.000122447 -0.000308157 0)
(-0.00022468 -0.00085068 0)
(-0.000222961 -0.00178813 0)
(9.29606e-05 -0.00313905 -0)
(0.00100171 -0.00468888 -0)
(0.00289665 -0.00626443 -0)
(0.00757453 -0.00891491 -0)
(0.0182679 -0.0115872 -0)
(0.0338831 -0.0085426 -0)
(0.130812 -0.00377872 -0)
(-0.0335047 -0.00244133 0)
(-0.00403313 -0.000737746 0)
(-0.00143713 -0.000440892 0)
(-0.000766804 -0.000334758 0)
(-0.000435568 -0.000249317 0)
(-0.000221049 -0.000158455 0)
(-7.82776e-05 -6.8536e-05 0)
(-1.17993e-06 -1.24778e-06 0)
(4.96763e-06 6.34925e-06 0)
(-6.8773e-05 -0.000107756 0)
(-0.00022246 -0.000442134 0)
(-0.000417301 -0.00113007 0)
(-0.000533123 -0.00232594 0)
(-0.000330211 -0.00443666 0)
(0.000944789 -0.00857211 -0)
(0.00637199 -0.0177546 -0)
(0.0300898 -0.040389 -0)
(0.0903295 -0.0617823 -0)
(0.160035 -0.0386457 -0)
(0.195568 0.0166444 0)
(-0.0434085 -0.00294573 0)
(-0.00525249 -0.000894907 0)
(-0.00183348 -0.00052316 0)
(-0.00092696 -0.000374792 0)
(-0.000475107 -0.000250134 0)
(-0.000188957 -0.000123309 0)
(-5.7775e-06 -4.53924e-06 0)
(8.7986e-05 8.18798e-05 0)
(8.90565e-05 9.75677e-05 0)
(-1.18845e-05 -1.54002e-05 0)
(-0.000208783 -0.000326162 0)
(-0.000454425 -0.000893149 0)
(-0.000663872 -0.00179418 0)
(-0.000927849 -0.00428364 0)
(-0.000478813 -0.0131354 0)
(0.00560551 -0.0284096 -0)
(0.0334341 -0.0620343 -0)
(0.18775 -0.170544 -0)
(0.508358 -0.216725 -0)
(0.359783 0.031323 0)
(-0.0554613 -0.00362453 0)
(-0.00672894 -0.00109719 0)
(-0.002258 -0.000612135 0)
(-0.00101709 -0.000387225 0)
(-0.000384919 -0.000188674 0)
(6.88623e-06 4.12276e-06 0)
(0.0002491 0.000176148 0)
(0.00037165 0.000303662 0)
(0.00038332 0.000357135 0)
(0.000298698 0.000315977 0)
(0.000185304 0.000224268 0)
(0.000173835 0.000246655 0)
(0.000580191 0.00100974 0)
(0.00279293 0.00650335 0)
(0.0108509 0.0435707 0)
(-0.00059833 0.207835 -0)
(-0.157762 0.414035 -0)
(-0.085003 0.091826 -0)
(0.927669 -0.554419 -0)
(0.90055 -0.226941 -0)
(-0.0702965 -0.00462811 0)
(-0.00843629 -0.0013622 0)
(-0.00258135 -0.000681891 0)
(-0.000866606 -0.000316705 0)
(1.88851e-05 8.73962e-06 0)
(0.000554836 0.000307459 0)
(0.000874362 0.000558292 0)
(0.00103412 0.000739336 0)
(0.00107527 0.000842269 0)
(0.00108719 0.000919811 0)
(0.00130718 0.00119117 0)
(0.00209136 0.00207527 0)
(0.00542986 0.00595453 0)
(0.032991 0.0417749 0)
(0.142091 0.251626 0)
(0.181018 0.899597 0)
(-0.547787 1.6331 -0)
(-1.35727 1.34507 -0)
(0.461511 -0.260683 -0)
(2.8189 -1.00863 -0)
(-0.0898034 -0.00624399 0)
(-0.010111 -0.00167348 0)
(-0.00246191 -0.000651159 0)
(-0.000110969 -3.97415e-05 0)
(0.00110212 0.000488858 0)
(0.00180456 0.000934585 0)
(0.00220356 0.00127526 0)
(0.00238931 0.00148924 0)
(0.00247091 0.00160432 0)
(0.00264187 0.00173623 0)
(0.00345198 0.00225491 0)
(0.00610915 0.00395147 0)
(0.0167567 0.0106894 0)
(0.096265 0.0618809 0)
(0.408175 0.330573 0)
(0.573265 1.03914 0)
(-0.628075 1.83279 -0)
(-2.86785 2.03406 -0)
(-1.89775 0.808297 -0)
(6.33889 -1.65566 -0)
(-0.11294 -0.0090361 0)
(-0.0114588 -0.00204298 0)
(-0.00117422 -0.000320065 0)
(0.00198381 0.00070984 0)
(0.00360607 0.00155204 0)
(0.00444068 0.00216381 0)
(0.00484349 0.00254287 0)
(0.0050251 0.00271361 0)
(0.00516334 0.00272662 0)
(0.005484 0.00268077 0)
(0.00687421 0.00294642 0)
(0.0117794 0.00422226 0)
(0.029074 0.00826385 0)
(0.125799 0.0259881 0)
(0.464824 0.0793305 0)
(0.763644 0.18715 0)
(-0.15458 0.283977 -0)
(-2.55966 0.528257 -0)
(-4.18789 1.05226 -0)
(9.3009 -1.47456 -0)
(-0.155376 -0.0132064 0)
(-0.010099 -0.00191624 0)
(0.0029198 0.000824623 0)
(0.00700509 0.00250881 0)
(0.00878326 0.00363802 0)
(0.00960512 0.00433867 0)
(0.0101128 0.00471715 0)
(0.0106184 0.00482393 0)
(0.0110263 0.00451029 0)
(0.0115669 0.00381056 0)
(0.0132236 0.00292897 0)
(0.0186526 0.00182813 0)
(0.0354019 -0.00104054 0)
(0.103841 -0.0174852 0)
(0.310469 -0.107255 0)
(0.497346 -0.349833 0)
(-0.0406215 -0.603757 0)
(-1.37823 -0.718398 0)
(-3.91722 0.104059 -0)
(10.2069 -0.823536 -0)
(-0.16677 -0.0221644 0)
(-0.00944959 -0.0023003 0)
(0.0112562 0.00346797 0)
(0.0180765 0.00634968 0)
(0.0208055 0.00788338 0)
(0.0225269 0.00871865 0)
(0.0242775 0.00897218 0)
(0.0261773 0.00844536 0)
(0.0282451 0.00684264 0)
(0.0307857 0.00387149 0)
(0.0343703 -0.000846451 0)
(0.0406015 -0.00815085 0)
(0.0538313 -0.0208888 0)
(0.0889228 -0.0529672 0)
(0.171603 -0.154274 0)
(0.220534 -0.390267 0)
(-0.0521822 -0.616233 0)
(-0.796445 -0.785756 0)
(-2.86829 -0.583893 0)
(9.90891 -0.304409 -0)
(-0.420906 -0.0445748 0)
(0.0437333 0.00812327 0)
(0.0700602 0.0148136 0)
(0.0730787 0.0154622 0)
(0.079138 0.0150644 0)
(0.0851988 0.0118484 0)
(0.0897939 0.00447878 0)
(0.0940106 -0.00709599 0)
(0.0986699 -0.0232022 0)
(0.104301 -0.0446752 0)
(0.111533 -0.0725145 0)
(0.121673 -0.108272 0)
(0.136129 -0.155545 0)
(0.155088 -0.224537 0)
(0.172233 -0.336156 0)
(0.143299 -0.528313 0)
(-0.0345461 -0.698327 0)
(-0.616999 -1.04134 0)
(-2.13256 -0.710136 0)
(7.70381 0.202971 0)
(0.0285964 0.0090349 0)
(0.092193 0.0624836 0)
(0.102072 0.00909202 0)
(0.151516 -0.070225 0)
(0.184796 -0.188129 0)
(0.194917 -0.320234 0)
(0.198192 -0.456514 0)
(0.201988 -0.595447 0)
(0.206412 -0.737606 0)
(0.211417 -0.883437 0)
(0.217748 -1.03407 0)
(0.226392 -1.19096 0)
(0.237343 -1.35694 0)
(0.244073 -1.54087 0)
(0.232192 -1.73983 0)
(0.154437 -1.9967 0)
(-0.0149698 -2.09367 0)
(-0.519047 -2.72712 0)
(-1.45099 -1.04479 0)
(-2.23143 -0.716496 0)
(16.6641 -7.35777 0)
(13.8847 -12.6041 0)
(8.54346 -17.3191 0)
(5.56952 -21.05 0)
(4.02923 -23.7673 0)
(3.13226 -25.963 0)
(2.54293 -27.8986 0)
(2.12904 -29.6439 0)
(1.82144 -31.2294 0)
(1.58442 -32.6849 0)
(1.40099 -34.0413 0)
(1.25618 -35.3255 0)
(1.13597 -36.5488 0)
(1.02687 -37.7328 0)
(0.903651 -38.7475 0)
(0.69713 -39.827 0)
(0.402978 -39.4846 0)
(-0.484454 -41.8761 0)
(0.536467 -25.5531 0)
(-14.3611 -55.2067 0)
)
;

boundaryField
{
    movingWall
    {
        type            calculated;
        value           nonuniform List<vector> 
20
(
(0 -367.472 0)
(0 -379.573 0)
(0 -368.566 0)
(0 -358.035 0)
(0 -350.412 0)
(0 -344.464 0)
(0 -339.292 0)
(0 -334.606 0)
(0 -330.288 0)
(0 -326.238 0)
(0 -322.364 0)
(0 -318.583 0)
(0 -314.849 0)
(0 -311.089 0)
(0 -307.771 0)
(0 -304.215 0)
(0 -305.967 0)
(0 -296.873 0)
(0 -356.663 0)
(0 -237.912 0)
)
;
    }
    fixedWalls
    {
        type            calculated;
        value           uniform (-0 0 0);
    }
    frontAndBack
    {
        type            empty;
    }
}


// ************************************************************************* //
