/*--------------------------------*- C++ -*----------------------------------*\
| =========                 |                                                 |
| \\      /  F ield         | OpenFOAM: The Open Source CFD Toolbox           |
|  \\    /   O peration     | Version:  2506                                  |
|   \\  /    A nd           | Website:  www.openfoam.com                      |
|    \\/     M anipulation  |                                                 |
\*---------------------------------------------------------------------------*/
FoamFile
{
    version     2.0;
    format      ascii;
    arch        "LSB;label=32;scalar=64";
    class       volScalarField;
    location    "0.75";
    object      Lambda2Field;
}
// * * * * * * * * * * * * * * * * * * * * * * * * * * * * * * * * * * * * * //

dimensions      [0 0 -2 0 0 0 0];

internalField   nonuniform List<scalar> 
400
(
0.00518329
0.0218303
0.0494059
0.0636373
0.0692511
0.0675281
0.0628248
0.0583875
0.0576597
0.0595515
0.0632468
0.0787029
0.0966047
0.112157
0.130858
0.145752
0.145189
0.122771
0.0682354
0.026318
0.0209401
0.0448394
0.0615678
0.0707849
0.072453
0.0683003
0.0603977
0.0504934
0.0401913
0.0311483
0.025525
0.0253963
0.0340422
0.054079
0.0845346
0.119729
0.14803
0.156077
0.136227
0.0762519
0.0475074
0.0610985
0.0737311
0.0773182
0.0775096
0.0736119
0.0661603
0.0563871
0.0457497
0.0362609
0.0303657
0.0312623
0.0425674
0.0663864
0.101833
0.143396
0.181266
0.203406
0.193489
0.151843
0.063677
0.0740293
0.0812837
0.0831927
0.0827076
0.0798231
0.0746474
0.0676756
0.0602031
0.0542151
0.0522929
0.057999
0.074774
0.104864
0.147541
0.197721
0.244414
0.274264
0.26939
0.206879
0.0732252
0.0840294
0.0903021
0.0911077
0.0905354
0.0892506
0.0871626
0.084597
0.0826507
0.0831964
0.0891047
0.103922
0.131516
0.174534
0.232741
0.301413
0.367569
0.408106
0.388601
0.262804
0.0762736
0.0924579
0.100525
0.10158
0.101616
0.102505
0.10421
0.107274
0.112961
0.123578
0.142205
0.173519
0.222676
0.293242
0.386871
0.498478
0.606682
0.662713
0.596553
0.343357
0.0756816
0.100514
0.11177
0.114175
0.11535
0.118516
0.124406
0.134244
0.150159
0.175319
0.214478
0.275045
0.364751
0.492311
0.665631
0.878209
1.08287
1.16994
0.98908
0.538577
0.073294
0.108895
0.123838
0.127801
0.130113
0.135456
0.145647
0.16313
0.191685
0.237299
0.308925
0.418203
0.58403
0.832975
1.18669
1.65057
2.11816
2.28996
1.7986
1.14168
0.0698939
0.117962
0.136419
0.141232
0.143783
0.150364
0.164168
0.189449
0.232875
0.305367
0.425112
0.618222
0.929942
1.43064
2.2144
3.34087
4.66412
5.32019
3.56966
2.80168
0.0649887
0.127941
0.149115
0.153003
0.153684
0.159308
0.174726
0.206652
0.266108
0.372441
0.560444
0.890809
1.46934
2.51933
4.37563
7.29597
11.2139
13.2615
7.36093
2.7999
0.0570629
0.139109
0.161497
0.161386
0.156666
0.157723
0.171221
0.206771
0.281281
0.426872
0.70609
1.24164
2.28998
4.53522
9.09404
17.1841
28.0826
32.5539
15.7064
-6.65205
0.0374439
0.151945
0.173275
0.164559
0.149722
0.141665
0.148668
0.183243
0.269279
0.455728
0.844068
1.66004
3.4746
7.66888
15.8057
25.2434
32.1731
45.4896
41.2819
-4.46463
0.0170642
0.167977
0.184038
0.161119
0.131122
0.109976
0.106937
0.136749
0.230164
0.454494
0.957321
2.10007
4.71335
10.0927
12.7248
0
-27.5113
-2.69827
49.0615
61.8896
0
0.189566
0.194783
0.147932
0.100116
0.0658978
0.0544187
0.0810832
0.182042
0.442894
1.05731
2.38879
5.0815
9.19649
0
-58.2382
-132.312
-139.396
-10.9844
147.396
0
0.219626
0.197075
0.120435
0.0562309
0.0160965
0.00691755
0.0424575
0.163235
0.461056
1.13289
2.56406
5.17163
7.30544
-5.45047
-63.4752
-141.479
-179.656
-87.4431
155.007
0
0.154356
0.125419
0.0418149
-0.00769225
-0.0403788
-0.027341
0.0405791
0.208352
0.571791
1.31174
2.77328
5.33282
7.68289
0.112867
-31.7542
-69.2166
-85.9652
-82.7556
94.5195
0
0.237917
0.0111112
0
-0.120702
-0.13314
-0.0679716
0
0.229685
0.756235
1.6967
3.25201
5.58503
7.54886
3.4655
-8.9102
-23.7221
-28.5317
-30.5334
66.1787
0
0
0
0
-0.0152432
-0.0299635
0
0
0
0.58467
2.03922
3.99704
5.85657
5.61546
0.281628
-11.7787
-27.6959
-40.351
13.7036
296.276
10.0848
0
0
0
0
0
0
0
0
0
0.34894
2.41328
4.07777
3.22863
-4.14713
-19.6476
-38.5956
-26.1506
-124.857
1005.79
3219.38
-584.872
-678.4
-362.702
-168.149
-91.3879
-60.0971
-42.0155
-30.318
-22.2575
-16.4803
-12.1827
-10.029
-5.51127
-25.6167
0
0
0
-223.416
1653.85
)
;

boundaryField
{
    movingWall
    {
        type            calculated;
        value           nonuniform List<scalar> 
20
(
1607.72
0
0
0
0
0
0
0
0
0
0
0
0
0
0
0
-97.8083
0
-1364.6
2895.25
)
;
    }
    fixedWalls
    {
        type            calculated;
        value           nonuniform List<scalar> 
60
(
0
0.0161844
0.0338487
0.0441511
0.0502124
0.0497684
0.0447924
0.0364685
0.0245814
0.00641139
0
0
0
0
-0.00334356
0
0
0
33.5748
6855.24
0.00507486
0.0568408
0.108875
0.138333
0.164553
0.236616
0.58427
1.33217
2.00978
0
0
-21.519
8.17288
69.1274
105.515
103.251
177.072
826.841
3211.45
2251.49
0
0.0170476
0.0376033
0.05074
0.0598933
0.0631557
0.0641046
0.0664598
0.0760108
0.0918547
0.109281
0.139058
0.167567
0.169735
0.166531
0.154051
0.128453
0.0963612
0.0525764
0.00401186
)
;
    }
    frontAndBack
    {
        type            empty;
    }
}


// ************************************************************************* //
