/*--------------------------------*- C++ -*----------------------------------*\
| =========                 |                                                 |
| \\      /  F ield         | OpenFOAM: The Open Source CFD Toolbox           |
|  \\    /   O peration     | Version:  2506                                  |
|   \\  /    A nd           | Website:  www.openfoam.com                      |
|    \\/     M anipulation  |                                                 |
\*---------------------------------------------------------------------------*/
FoamFile
{
    version     2.0;
    format      ascii;
    arch        "LSB;label=32;scalar=64";
    class       volVectorField;
    location    "7.5";
    object      ddtU;
}
// * * * * * * * * * * * * * * * * * * * * * * * * * * * * * * * * * * * * * //

dimensions      [0 1 -2 0 0 0 0];

internalField   nonuniform List<vector> 
400
(
(-1.33227e-13 -2.29204e-14 0)
(8.88178e-14 1.03486e-15 0)
(0 1.34799e-14 0)
(-2.22045e-14 7.30546e-15 0)
(6.66134e-14 -1.71076e-14 0)
(2.22045e-14 -1.03463e-14 0)
(6.66134e-14 4.22466e-15 0)
(0 -4.13481e-15 0)
(2.22045e-14 1.21544e-14 0)
(0 1.73396e-14 0)
(-4.44089e-14 -7.13878e-15 0)
(-4.44089e-14 -8.57466e-15 0)
(2.22045e-14 1.71776e-15 0)
(-2.22045e-14 2.75452e-15 0)
(0 -6.06209e-16 0)
(0 -1.08604e-14 0)
(4.44089e-14 -6.52312e-15 0)
(4.44089e-14 4.42481e-15 0)
(0 7.53217e-15 0)
(2.22045e-14 8.95211e-15 0)
(-4.44089e-14 8.9293e-15 0)
(-4.44089e-14 1.74701e-14 0)
(-6.66134e-14 1.91491e-14 0)
(0 -6.89066e-15 0)
(4.44089e-14 -1.88848e-14 0)
(0 4.16599e-15 0)
(0 1.9019e-14 0)
(0 1.78318e-15 0)
(0 -1.95119e-15 0)
(0 -2.4005e-15 0)
(4.44089e-14 -5.00226e-15 0)
(4.44089e-14 -2.72434e-15 0)
(-4.44089e-14 -8.56567e-15 0)
(0 -6.26322e-15 0)
(-4.44089e-14 -5.76296e-15 0)
(-4.44089e-14 -7.47992e-15 0)
(-4.44089e-14 -1.71255e-14 0)
(0 1.35101e-14 0)
(2.22045e-14 1.9074e-14 0)
(0 1.81361e-14 0)
(-8.88178e-14 8.17407e-15 0)
(2.22045e-14 2.80913e-14 0)
(0 3.4313e-14 0)
(0 -5.08748e-15 0)
(0 -6.46518e-16 0)
(-4.44089e-14 5.48293e-15 0)
(0 1.11229e-14 0)
(4.44089e-14 8.58605e-15 0)
(4.44089e-14 -1.65667e-14 0)
(2.22045e-14 -2.8349e-14 0)
(0 -5.58472e-15 0)
(6.66134e-14 -1.70344e-15 0)
(2.22045e-14 1.06273e-14 0)
(-2.22045e-14 1.6731e-14 0)
(-2.22045e-14 -3.49441e-15 0)
(-2.22045e-14 -1.01919e-14 0)
(2.22045e-14 -9.94487e-15 0)
(-6.66134e-14 -2.04981e-15 0)
(0 5.55584e-15 0)
(0 1.31869e-14 0)
(8.88178e-14 5.72582e-15 0)
(-8.88178e-14 3.01502e-14 0)
(4.44089e-14 2.12905e-14 0)
(0 1.83661e-14 0)
(0 1.32277e-14 0)
(-2.22045e-14 -5.54622e-16 0)
(2.22045e-14 -9.61633e-15 0)
(2.22045e-14 2.02862e-15 0)
(2.22045e-14 3.59962e-15 0)
(4.44089e-14 -1.54948e-14 0)
(0 -6.38226e-15 0)
(0 -1.8659e-15 0)
(0 2.09651e-14 0)
(2.22045e-14 1.97763e-14 0)
(2.22045e-14 6.96864e-16 0)
(2.22045e-14 -1.19235e-14 0)
(2.22045e-14 4.254e-16 0)
(2.22045e-14 -1.14957e-14 0)
(2.22045e-14 -2.49748e-15 0)
(-6.66134e-14 1.71157e-15 0)
(2.22045e-14 4.77044e-14 0)
(0 1.16568e-14 0)
(-2.22045e-14 -7.29702e-15 0)
(4.44089e-14 1.32275e-14 0)
(4.44089e-14 2.03061e-14 0)
(2.22045e-14 4.50564e-15 0)
(6.66134e-14 -5.79568e-15 0)
(6.66134e-14 8.65455e-16 0)
(2.22045e-14 1.04318e-14 0)
(8.88178e-14 -1.94083e-15 0)
(6.66134e-14 1.51611e-14 0)
(2.22045e-14 1.28181e-14 0)
(0 -1.0784e-15 0)
(6.66134e-14 -1.34481e-15 0)
(2.22045e-14 -1.29294e-15 0)
(2.22045e-14 -6.84528e-15 0)
(2.22045e-14 -9.35217e-15 0)
(0 1.01546e-15 0)
(-2.22045e-14 5.32653e-15 0)
(0 -7.90346e-15 0)
(0 -3.49071e-14 0)
(4.44089e-14 5.44006e-15 0)
(4.44089e-14 2.62232e-14 0)
(-2.22045e-14 2.16492e-14 0)
(2.22045e-14 1.74711e-14 0)
(2.22045e-14 -2.32423e-16 0)
(-2.22045e-14 -5.99203e-15 0)
(2.22045e-14 -8.43628e-15 0)
(2.22045e-14 5.90932e-15 0)
(-2.22045e-14 1.77225e-14 0)
(0 1.50136e-14 0)
(4.44089e-14 1.38168e-15 0)
(-2.22045e-14 1.30584e-15 0)
(0 7.26343e-15 0)
(-2.22045e-14 6.46574e-15 0)
(2.22045e-14 1.6429e-15 0)
(0 -1.48469e-14 0)
(-4.44089e-14 -1.10015e-14 0)
(4.44089e-14 -6.7639e-15 0)
(0 -7.86056e-15 0)
(8.88178e-14 -8.88258e-15 0)
(-6.66134e-14 2.25324e-14 0)
(0 1.31711e-14 0)
(0 2.99891e-14 0)
(2.22045e-14 2.94931e-14 0)
(2.22045e-14 2.06282e-14 0)
(4.44089e-14 -3.9035e-15 0)
(0 -1.07317e-14 0)
(-4.44089e-14 2.14676e-14 0)
(-6.66134e-14 2.10392e-14 0)
(0 -7.46334e-15 0)
(0 -7.46883e-15 0)
(-4.44089e-14 -8.23226e-16 0)
(0 -9.90757e-15 0)
(0 -9.06679e-16 0)
(0 -8.88119e-15 0)
(4.44089e-14 -6.5643e-15 0)
(4.44089e-14 -7.03286e-15 0)
(-2.22045e-14 -1.47672e-16 0)
(-2.22045e-14 -7.23739e-15 0)
(-1.11022e-13 -4.76918e-14 0)
(8.88178e-14 2.35711e-14 0)
(0 5.05387e-15 0)
(0 1.98642e-14 0)
(4.44089e-14 1.94674e-14 0)
(0 1.47395e-14 0)
(4.44089e-14 8.81255e-15 0)
(0 1.12875e-14 0)
(0 1.05996e-14 0)
(0 2.83727e-16 0)
(8.88178e-14 -3.27832e-15 0)
(4.44089e-14 -4.57706e-15 0)
(4.44089e-14 -1.26952e-14 0)
(8.88178e-14 -1.63736e-14 0)
(2.22045e-14 -2.17322e-14 0)
(2.22045e-14 -2.54002e-14 0)
(4.44089e-14 1.34663e-14 0)
(-2.22045e-14 2.96309e-14 0)
(-2.22045e-14 1.52263e-14 0)
(0 -1.06864e-14 0)
(4.44089e-14 -4.13779e-14 0)
(-8.88178e-14 9.97242e-15 0)
(2.22045e-14 1.70085e-14 0)
(0 8.69693e-15 0)
(6.66134e-14 1.90396e-14 0)
(-2.22045e-14 1.40219e-14 0)
(0 1.74884e-14 0)
(0 3.99065e-15 0)
(0 -1.86405e-14 0)
(2.22045e-14 -1.24066e-14 0)
(0 1.23516e-14 0)
(2.22045e-14 1.75816e-14 0)
(-2.22045e-14 -1.63923e-14 0)
(-2.22045e-14 -2.07989e-14 0)
(-2.22045e-14 -2.04193e-14 0)
(0 -1.3344e-15 0)
(-8.88178e-14 1.20281e-14 0)
(-4.44089e-14 1.95957e-14 0)
(4.44089e-14 -7.82472e-15 0)
(2.22045e-14 -8.02233e-15 0)
(2.22045e-14 1.43105e-14 0)
(-8.88178e-14 -2.73609e-15 0)
(-2.22045e-14 7.17694e-15 0)
(-4.44089e-14 6.5967e-15 0)
(-8.88178e-14 3.31351e-15 0)
(-4.44089e-14 4.29166e-15 0)
(4.44089e-14 1.28754e-14 0)
(0 -2.73465e-16 0)
(0 -3.41087e-15 0)
(0 4.12095e-15 0)
(-4.44089e-14 -6.08359e-15 0)
(0 1.68204e-15 0)
(8.88178e-14 1.79064e-15 0)
(0 -4.24103e-15 0)
(-4.44089e-14 2.88975e-15 0)
(0 1.03406e-14 0)
(0 -8.76282e-15 0)
(0 -6.4256e-15 0)
(8.88178e-14 -1.58996e-14 0)
(-4.44089e-14 1.48495e-15 0)
(1.11022e-13 -3.00205e-14 0)
(0 4.42229e-14 0)
(-2.22045e-14 8.26315e-15 0)
(0 1.0694e-14 0)
(0 -5.55084e-16 0)
(0 -7.7005e-15 0)
(2.22045e-14 -5.90276e-16 0)
(-2.22045e-14 1.20978e-14 0)
(-2.22045e-14 3.27783e-15 0)
(0 -7.88118e-15 0)
(2.22045e-14 -2.02418e-14 0)
(2.22045e-14 -1.80529e-14 0)
(-4.44089e-14 1.48365e-14 0)
(-4.44089e-14 2.16272e-14 0)
(-4.44089e-14 8.41857e-15 0)
(0 3.7865e-15 0)
(-4.44089e-14 4.29088e-16 0)
(-4.44089e-14 -1.37053e-14 0)
(0 -9.88379e-15 0)
(2.22045e-14 4.51713e-15 0)
(-1.33227e-13 8.23309e-14 0)
(2.22045e-14 -4.30855e-15 0)
(4.44089e-14 -5.73798e-15 0)
(0 7.27564e-15 0)
(8.88178e-14 5.27161e-15 0)
(2.22045e-14 1.12968e-14 0)
(0 1.6551e-15 0)
(4.44089e-14 1.02462e-14 0)
(-2.22045e-14 -1.07021e-14 0)
(2.22045e-14 -1.62273e-14 0)
(-2.22045e-14 -1.41238e-14 0)
(0 1.46046e-14 0)
(-2.22045e-14 3.42855e-14 0)
(-2.22045e-14 1.86478e-14 0)
(0 -1.36942e-14 0)
(2.22045e-14 -3.93525e-15 0)
(2.22045e-14 7.3777e-15 0)
(-2.22045e-14 -1.65134e-14 0)
(-2.22045e-14 -4.99536e-15 0)
(0 -2.05886e-15 0)
(4.44089e-14 -9.64479e-15 0)
(0 -2.25149e-14 0)
(0 -1.34479e-14 0)
(0 -6.13258e-16 0)
(4.44089e-14 1.09853e-16 0)
(-4.44089e-14 9.79193e-15 0)
(4.44089e-14 6.48149e-15 0)
(0 6.4943e-15 0)
(-4.44089e-14 -1.25457e-15 0)
(0 -3.70441e-16 0)
(-4.44089e-14 2.46676e-18 0)
(-8.88178e-14 4.89843e-15 0)
(0 8.33302e-15 0)
(4.44089e-14 -4.75945e-15 0)
(4.44089e-14 -1.41343e-14 0)
(0 -1.6245e-15 0)
(4.44089e-14 8.49448e-16 0)
(4.44089e-14 4.27775e-15 0)
(0 1.3375e-14 0)
(0 2.23459e-15 0)
(4.44089e-14 -6.54877e-14 0)
(-2.22045e-14 8.89544e-15 0)
(-4.44089e-14 -4.36586e-15 0)
(0 -7.05385e-15 0)
(-2.22045e-14 5.38723e-15 0)
(4.44089e-14 -1.63562e-15 0)
(2.22045e-14 2.88755e-15 0)
(0 6.60057e-15 0)
(0 1.79896e-14 0)
(2.22045e-14 5.64581e-15 0)
(2.22045e-14 1.25159e-14 0)
(0 -3.99463e-15 0)
(-2.22045e-14 -2.6733e-14 0)
(0 -1.85066e-14 0)
(-2.22045e-14 -1.22278e-15 0)
(-2.22045e-14 1.35469e-14 0)
(-4.44089e-14 1.37919e-14 0)
(-6.66134e-14 1.15924e-14 0)
(-2.22045e-14 4.51973e-15 0)
(-2.22045e-14 1.21386e-15 0)
(0 8.64352e-14 0)
(0 -2.98407e-14 0)
(0 -3.97152e-15 0)
(-2.22045e-14 -1.2e-14 0)
(-4.44089e-14 -1.13544e-14 0)
(0 -7.97893e-16 0)
(2.22045e-14 6.1986e-15 0)
(-2.22045e-14 4.38248e-15 0)
(0 1.41342e-14 0)
(0 5.83001e-15 0)
(-2.22045e-14 6.20514e-15 0)
(0 9.68532e-15 0)
(2.22045e-14 -1.67443e-15 0)
(-2.22045e-14 -8.56567e-15 0)
(-2.22045e-14 1.17286e-14 0)
(-4.44089e-14 2.051e-14 0)
(6.66134e-14 1.07528e-14 0)
(0 -5.23312e-15 0)
(0 -1.852e-15 0)
(0 -4.38386e-15 0)
(2.22045e-14 -1.07398e-14 0)
(0 6.29521e-15 0)
(4.44089e-14 1.51639e-15 0)
(0 -7.49433e-15 0)
(-4.44089e-14 -7.75038e-16 0)
(4.44089e-14 2.02461e-14 0)
(0 1.35332e-14 0)
(4.44089e-14 -1.01395e-14 0)
(-4.44089e-14 1.12866e-14 0)
(4.44089e-14 6.34792e-15 0)
(0 6.25381e-15 0)
(4.44089e-14 8.93898e-15 0)
(4.44089e-14 1.08133e-14 0)
(0 1.07722e-15 0)
(0 1.5956e-14 0)
(0 5.21685e-15 0)
(4.44089e-14 -1.68221e-14 0)
(2.22045e-14 -1.37125e-14 0)
(4.44089e-14 3.67546e-15 0)
(0 6.87736e-15 0)
(-4.44089e-14 -1.6219e-14 0)
(2.22045e-14 -4.46193e-15 0)
(0 -3.19795e-15 0)
(4.44089e-14 -7.89263e-15 0)
(-4.44089e-14 -3.22168e-15 0)
(-4.44089e-14 1.46305e-14 0)
(8.88178e-14 2.33764e-14 0)
(0 2.19853e-14 0)
(-4.44089e-14 9.19456e-16 0)
(0 -5.01042e-15 0)
(4.44089e-14 1.09247e-14 0)
(4.44089e-14 2.16794e-14 0)
(2.22045e-14 1.45591e-14 0)
(0 1.40214e-15 0)
(-6.66134e-14 -1.35767e-14 0)
(2.22045e-14 -2.65538e-14 0)
(6.66134e-14 -1.62872e-14 0)
(2.22045e-14 1.30887e-14 0)
(0 1.45684e-14 0)
(0 1.2922e-14 0)
(0 4.06014e-14 0)
(2.22045e-14 -2.60308e-14 0)
(0 2.21888e-16 0)
(-4.44089e-14 1.4349e-14 0)
(-4.44089e-14 1.01149e-14 0)
(-4.44089e-14 -1.55734e-15 0)
(0 1.95451e-14 0)
(-4.44089e-14 2.96024e-14 0)
(0 -1.72934e-14 0)
(-4.44089e-14 -1.62337e-14 0)
(0 -8.68233e-15 0)
(0 -7.19283e-15 0)
(4.44089e-14 -4.98656e-15 0)
(4.44089e-14 1.36638e-14 0)
(4.44089e-14 1.03274e-14 0)
(-4.44089e-14 -1.3169e-14 0)
(-4.44089e-14 5.32245e-16 0)
(-8.88178e-14 1.46029e-14 0)
(0 1.96939e-14 0)
(0 8.9178e-15 0)
(2.22045e-14 -4.95505e-14 0)
(0 -3.09236e-15 0)
(0 1.28988e-14 0)
(4.44089e-14 2.12884e-14 0)
(8.88178e-14 2.52971e-14 0)
(0 8.42961e-15 0)
(4.44089e-14 1.59862e-15 0)
(6.66134e-14 -3.67889e-15 0)
(2.22045e-14 -8.60016e-15 0)
(2.22045e-14 1.35365e-15 0)
(-4.44089e-14 -1.44364e-14 0)
(-4.44089e-14 -2.67902e-14 0)
(2.22045e-14 -9.26688e-15 0)
(-4.44089e-14 1.11542e-14 0)
(8.88178e-14 1.79088e-14 0)
(0 1.50694e-14 0)
(2.22045e-14 1.47218e-14 0)
(2.22045e-14 4.29825e-15 0)
(-2.22045e-14 9.65902e-15 0)
(0 5.18748e-15 0)
(0 -2.75333e-14 0)
(0 -1.39149e-15 0)
(-4.44089e-14 1.16972e-15 0)
(-2.22045e-14 -7.88374e-16 0)
(4.44089e-14 6.67399e-15 0)
(4.44089e-14 7.88847e-15 0)
(4.44089e-14 -2.62683e-15 0)
(4.44089e-14 -2.91109e-15 0)
(0 1.35383e-15 0)
(0 5.66647e-15 0)
(2.22045e-14 -4.57684e-16 0)
(-2.22045e-14 -2.15814e-15 0)
(0 4.53748e-15 0)
(2.22045e-14 -6.79848e-15 0)
(-2.22045e-14 -1.02432e-14 0)
(-2.22045e-14 4.28157e-15 0)
(4.44089e-14 1.20499e-14 0)
(-4.44089e-14 8.64202e-15 0)
(0 4.43439e-15 0)
(2.22045e-14 1.60452e-15 0)
)
;

boundaryField
{
    movingWall
    {
        type            calculated;
        value           uniform (0 0 0);
    }
    fixedWalls
    {
        type            calculated;
        value           uniform (0 0 0);
    }
    frontAndBack
    {
        type            empty;
    }
}


// ************************************************************************* //
