/*--------------------------------*- C++ -*----------------------------------*\
| =========                 |                                                 |
| \\      /  F ield         | OpenFOAM: The Open Source CFD Toolbox           |
|  \\    /   O peration     | Version:  2506                                  |
|   \\  /    A nd           | Website:  www.openfoam.com                      |
|    \\/     M anipulation  |                                                 |
\*---------------------------------------------------------------------------*/
FoamFile
{
    version     2.0;
    format      ascii;
    arch        "LSB;label=32;scalar=64";
    class       volScalarField;
    location    "7.5";
    object      divPhi;
}
// * * * * * * * * * * * * * * * * * * * * * * * * * * * * * * * * * * * * * //

dimensions      [0 0 -1 0 0 0 0];

internalField   nonuniform List<scalar> 
400
(
-1.0842e-13
-4.62998e-17
-5.20385e-15
-9.10332e-15
3.64509e-16
1.67474e-14
-1.57943e-14
-5.88809e-15
1.64175e-14
-4.48035e-15
-1.07589e-14
9.29294e-15
-8.94946e-15
2.28964e-14
-1.76903e-14
-6.21225e-15
8.05245e-15
-8.1857e-15
2.31802e-14
0
-2.71051e-14
1.62796e-14
-1.49247e-14
-5.96683e-15
1.95575e-14
-1.89962e-14
2.47372e-15
2.45727e-14
-3.99999e-14
-9.01389e-15
1.44511e-14
-8.35793e-15
-2.33838e-14
1.07256e-15
1.09106e-14
-1.20347e-14
3.21264e-14
-1.75074e-14
8.2392e-15
-2.71051e-14
0
-1.60254e-14
7.56786e-15
-2.39401e-15
9.04377e-15
-3.66754e-15
2.75591e-14
-6.42711e-15
1.47711e-14
-2.12014e-14
-3.3606e-14
-8.56327e-15
2.26377e-14
-1.22952e-14
3.2858e-14
-3.1973e-14
-6.15544e-15
2.56871e-14
1.45872e-15
0
0
1.04304e-14
1.84128e-14
-1.09589e-14
4.818e-16
1.04868e-14
-1.39379e-14
-5.47055e-15
8.88435e-15
7.32283e-15
1.91267e-14
-2.23467e-14
1.39902e-14
-8.41629e-15
-5.45817e-15
4.03989e-15
-1.0492e-14
6.72877e-16
-1.25964e-14
-2.71051e-14
0
1.56728e-14
7.96356e-16
-1.25967e-14
-1.40881e-14
1.57852e-14
2.44988e-14
-3.44711e-14
7.00303e-15
3.02221e-14
-1.80003e-14
-1.51904e-15
-1.3288e-14
-5.19536e-15
2.50552e-15
2.22102e-14
-3.61852e-14
7.35735e-15
-3.61241e-14
2.71051e-14
0
-1.50856e-14
-1.52423e-14
-3.27731e-14
2.259e-14
-7.0082e-15
-8.09754e-15
2.41213e-14
1.09775e-14
-2.34751e-14
2.40428e-14
-4.67338e-15
-3.68609e-14
-7.82307e-15
4.37523e-15
1.2161e-14
-1.08604e-14
1.34552e-14
-2.3976e-15
0
2.71051e-14
1.8282e-14
1.4161e-14
-2.9828e-15
1.54839e-14
-1.51979e-14
-1.81454e-14
-2.09755e-16
1.37608e-15
2.61248e-14
-1.69988e-14
2.08663e-14
-3.80561e-14
2.14091e-15
3.8783e-16
1.10086e-14
-4.67392e-15
3.06738e-14
-2.68186e-14
0
0
-2.07391e-14
-2.00646e-14
3.21694e-15
-1.75514e-14
9.30291e-15
2.39817e-14
7.96539e-15
6.59974e-15
-2.03009e-14
9.40397e-15
-1.47839e-14
-2.01903e-14
4.1282e-15
-1.50777e-14
2.21804e-14
2.34024e-16
2.06991e-14
-7.79024e-15
0
0
1.99427e-14
7.42398e-15
-1.09874e-14
8.82952e-16
1.08715e-14
-1.61371e-15
1.06212e-14
8.3445e-15
1.70162e-14
3.40049e-14
1.30766e-14
1.29267e-14
-2.65865e-14
2.21928e-14
-1.34028e-14
-5.84968e-15
-2.99489e-14
1.43158e-14
0
-2.71051e-14
-4.95645e-15
-1.86596e-14
-8.28984e-15
3.32335e-14
-9.28164e-15
-5.70432e-15
2.52807e-14
1.82598e-14
8.15029e-15
1.53328e-14
1.79409e-14
6.29495e-15
-8.74818e-15
-3.77912e-15
-1.05737e-14
2.20328e-14
-1.92157e-14
-2.50819e-16
-2.71051e-14
2.71051e-14
-1.07486e-14
1.0277e-14
-2.36631e-14
-2.35122e-16
1.02912e-14
-2.49502e-14
2.7965e-14
-2.88507e-14
9.08459e-15
-1.81013e-14
-5.39592e-15
3.65515e-17
-9.23952e-15
8.27002e-15
-3.79271e-14
6.63492e-15
-1.96605e-14
2.51274e-14
2.71051e-14
2.71051e-14
-7.8848e-15
-1.33995e-14
1.02597e-14
-6.30972e-15
1.40899e-14
-1.27873e-14
-2.52536e-14
6.9096e-15
1.66444e-14
2.04002e-15
9.32239e-15
-7.15668e-15
-4.33033e-16
1.16253e-16
1.41744e-14
-9.49234e-15
1.58364e-14
2.7599e-15
0
-2.71051e-14
-8.07901e-15
-6.58683e-15
1.49979e-14
2.96105e-15
-5.70808e-15
-1.30509e-14
-1.40713e-14
1.11372e-14
-1.80672e-14
1.1917e-14
-1.26634e-14
-6.20154e-15
-9.20742e-15
-1.25562e-14
1.45773e-14
-6.13596e-15
-2.89328e-14
1.48916e-14
0
0
-2.56079e-14
-1.57983e-14
-1.17453e-14
-1.82018e-15
-1.1579e-14
-1.06694e-14
3.10755e-14
1.14972e-14
2.29186e-14
2.03446e-14
-2.02886e-14
-2.07213e-14
8.73605e-15
-1.5191e-14
2.17545e-15
-2.14464e-14
2.76146e-14
-2.02789e-14
0
2.71051e-14
-5.69423e-15
1.12584e-14
-8.88548e-15
-1.9692e-14
8.96262e-15
3.40788e-15
-1.32463e-14
-4.94351e-15
1.78102e-14
-4.48473e-15
-2.61986e-15
-5.1404e-15
9.30482e-15
1.95807e-14
2.84443e-14
-1.95707e-14
-5.6327e-15
-9.62253e-15
0
0
1.59062e-14
-4.89286e-15
1.98988e-14
1.19471e-14
-4.63613e-16
1.48683e-14
-2.04041e-14
1.44149e-14
4.27196e-15
1.20783e-14
-3.61085e-15
-1.18347e-14
4.84953e-15
-7.68908e-15
-1.75832e-15
-3.95389e-15
-2.68937e-14
-2.7941e-14
0
-2.71051e-14
-1.15634e-14
-2.45179e-14
7.24358e-15
1.66159e-14
-1.22275e-14
-1.28374e-16
2.41262e-14
-4.70134e-14
1.73315e-14
1.29813e-14
2.17987e-15
-2.64335e-14
-2.49597e-14
-1.46968e-14
1.04193e-14
2.39494e-14
-1.33153e-14
1.03089e-14
0
5.42101e-14
-4.58736e-14
2.67424e-14
-5.27551e-15
7.43186e-15
-3.18083e-14
8.01642e-15
8.03587e-15
-2.31032e-14
1.95579e-15
3.49397e-14
-1.7368e-14
2.61518e-15
6.01928e-15
2.51813e-14
1.48564e-14
-6.01685e-15
-1.72559e-14
1.64436e-14
0
-2.71051e-14
1.74333e-14
-6.4819e-15
-9.28815e-15
1.42408e-14
-1.13087e-14
2.89156e-14
-1.53934e-14
8.96627e-15
-4.15668e-15
2.89207e-14
1.5132e-14
2.87614e-15
2.19976e-14
-6.10545e-15
-2.97155e-14
-1.83043e-14
8.17258e-15
-5.78463e-15
0
0
0
0
-2.71051e-14
0
0
0
0
0
0
2.71051e-14
-2.71051e-14
0
0
-2.71051e-14
0
0
2.71051e-14
0
0
)
;

boundaryField
{
    movingWall
    {
        type            extrapolatedCalculated;
        value           nonuniform List<scalar> 
20
(
0
0
0
-2.71051e-14
0
0
0
0
0
0
2.71051e-14
-2.71051e-14
0
0
-2.71051e-14
0
0
2.71051e-14
0
0
)
;
    }
    fixedWalls
    {
        type            extrapolatedCalculated;
        value           nonuniform List<scalar> 
60
(
-1.0842e-13
-2.71051e-14
0
0
0
0
2.71051e-14
0
0
-2.71051e-14
2.71051e-14
2.71051e-14
-2.71051e-14
0
2.71051e-14
0
-2.71051e-14
5.42101e-14
-2.71051e-14
0
0
-2.71051e-14
0
-2.71051e-14
2.71051e-14
0
0
0
0
-2.71051e-14
2.71051e-14
0
0
0
0
0
0
0
0
0
-1.0842e-13
-4.62998e-17
-5.20385e-15
-9.10332e-15
3.64509e-16
1.67474e-14
-1.57943e-14
-5.88809e-15
1.64175e-14
-4.48035e-15
-1.07589e-14
9.29294e-15
-8.94946e-15
2.28964e-14
-1.76903e-14
-6.21225e-15
8.05245e-15
-8.1857e-15
2.31802e-14
0
)
;
    }
    frontAndBack
    {
        type            empty;
    }
}


// ************************************************************************* //
