/*--------------------------------*- C++ -*----------------------------------*\
| =========                 |                                                 |
| \\      /  F ield         | OpenFOAM: The Open Source CFD Toolbox           |
|  \\    /   O peration     | Version:  2506                                  |
|   \\  /    A nd           | Website:  www.openfoam.com                      |
|    \\/     M anipulation  |                                                 |
\*---------------------------------------------------------------------------*/
FoamFile
{
    version     2.0;
    format      ascii;
    arch        "LSB;label=32;scalar=64";
    class       volScalarField;
    location    "7.5";
    object      enstrophyField;
}
// * * * * * * * * * * * * * * * * * * * * * * * * * * * * * * * * * * * * * //

dimensions      [0 0 -2 0 0 0 0];

internalField   nonuniform List<scalar> 
400
(
6.15998e-23
1.11558e-22
5.7598e-24
2.99381e-25
5.95372e-27
7.28235e-28
7.48134e-29
1.96e-30
1.94784e-27
1.63169e-27
1.07733e-27
1.046e-27
1.05784e-29
1.9979e-27
2.79832e-27
9.84113e-28
1.66998e-27
4.68058e-29
1.5979e-31
6.13512e-29
7.40454e-26
6.68311e-26
1.72186e-27
3.03039e-27
5.13998e-27
1.14292e-26
1.06712e-26
3.10696e-27
2.17395e-28
6.32502e-30
4.77037e-28
1.97096e-27
1.16122e-28
1.09294e-29
4.77879e-28
3.59829e-29
6.8928e-32
4.73883e-27
6.44194e-29
2.14463e-29
1.67471e-23
7.1367e-23
4.20742e-24
1.54373e-25
1.71779e-26
1.89433e-28
3.09666e-27
3.21017e-27
8.14389e-27
7.07376e-27
5.50577e-27
1.12323e-27
1.11762e-27
5.87785e-27
3.49221e-27
1.77595e-27
4.44924e-27
3.6302e-27
1.08222e-28
9.51855e-29
1.33216e-23
6.10082e-23
3.1024e-24
2.44522e-25
4.9497e-28
1.64992e-26
8.26072e-27
1.50815e-27
1.8854e-27
1.38182e-27
1.38193e-27
1.05383e-28
3.0175e-28
2.297e-29
7.47681e-28
2.17304e-27
1.0804e-28
6.69839e-28
1.8369e-28
2.50226e-27
1.39869e-25
1.17222e-24
7.2126e-26
4.74748e-27
7.04334e-29
2.58148e-30
1.76412e-28
6.02609e-30
4.16218e-28
2.44546e-27
1.13001e-27
3.5475e-28
2.02733e-29
4.05891e-28
3.71348e-29
1.47808e-28
7.09447e-29
8.92909e-30
6.41762e-28
1.01149e-27
1.64929e-23
4.86571e-23
2.50789e-24
1.84333e-25
3.57217e-27
1.91694e-28
3.95854e-28
6.62406e-29
5.50905e-30
2.31155e-27
6.34555e-27
3.70006e-28
2.63795e-27
5.60678e-27
2.17511e-27
7.67821e-29
2.65202e-28
4.63521e-29
3.20452e-30
2.29342e-28
4.27602e-23
1.07391e-22
6.18476e-24
1.70629e-25
5.66964e-26
5.0735e-27
4.31288e-27
2.4215e-27
8.19391e-27
3.31464e-27
1.88213e-28
5.4846e-28
5.65638e-27
2.04512e-27
9.90939e-28
7.99561e-29
5.26602e-28
2.24311e-30
5.43494e-30
2.27914e-28
8.50349e-24
1.97638e-23
1.057e-24
2.61203e-26
5.07211e-27
2.04471e-28
1.5176e-30
9.30552e-29
1.05831e-29
4.0447e-27
3.59044e-27
2.5105e-28
6.18741e-27
4.45555e-27
4.92657e-27
1.23875e-27
3.92096e-27
5.97304e-27
4.80442e-29
3.28545e-28
1.15163e-23
1.72071e-23
1.06462e-24
1.62067e-26
7.47435e-27
1.88522e-27
1.1845e-27
5.6348e-31
2.29279e-27
3.27476e-31
1.37168e-27
8.83195e-28
3.80109e-29
2.95138e-29
3.7758e-27
8.81693e-27
5.79757e-27
5.49556e-28
3.03531e-28
9.1536e-28
5.13145e-23
9.99074e-23
5.32549e-24
2.86672e-25
9.44192e-27
2.32775e-27
1.1578e-27
1.65061e-27
9.40688e-29
1.97523e-27
1.40388e-27
8.98638e-30
4.62375e-30
1.29436e-27
9.04776e-29
6.43043e-28
1.91169e-29
1.25229e-28
8.53627e-29
6.01734e-29
7.13573e-23
1.18788e-22
6.21932e-24
3.39343e-25
3.59243e-26
3.16512e-28
4.97626e-28
2.73451e-27
3.53261e-27
7.06827e-27
7.89187e-27
1.31947e-27
7.59945e-28
5.18335e-27
1.38632e-27
3.51445e-27
4.47219e-27
5.00171e-27
2.8751e-28
1.22892e-27
3.51083e-23
3.73586e-23
2.2405e-24
5.18728e-26
2.34397e-26
7.78034e-27
1.13233e-26
1.80855e-27
2.73954e-27
8.71653e-29
1.50959e-27
1.34353e-26
9.57396e-27
5.50629e-27
3.73079e-28
5.07693e-29
5.92599e-28
9.84032e-28
2.70309e-30
2.58544e-29
2.17497e-26
7.09901e-25
2.17085e-26
1.08598e-26
2.65256e-29
2.41914e-29
9.02325e-28
8.51868e-28
7.37956e-29
5.4935e-28
6.94734e-30
3.7576e-28
1.62325e-30
1.38185e-29
2.17799e-27
3.29563e-30
4.79181e-28
4.76155e-28
3.42153e-28
3.61238e-29
3.27978e-23
4.46291e-23
2.76196e-24
9.5869e-26
1.22438e-26
3.15282e-27
1.36705e-27
7.52789e-28
1.00939e-28
8.81342e-28
9.3803e-28
4.3794e-27
9.68003e-27
8.47954e-27
1.24678e-27
6.26397e-28
1.53405e-28
2.59359e-31
4.57361e-31
2.63252e-29
5.67908e-23
9.90972e-23
5.42372e-24
2.34606e-25
4.72335e-26
4.6682e-28
2.71437e-27
1.83833e-27
3.69667e-27
1.72241e-27
7.12304e-27
4.05646e-27
9.18834e-28
7.60021e-28
1.6501e-27
2.04595e-27
2.60926e-28
3.92044e-29
8.68654e-30
5.46147e-29
2.05262e-23
5.04238e-23
2.6384e-24
1.44072e-25
4.31783e-27
7.96354e-27
1.51471e-27
2.08727e-30
3.04323e-29
1.67425e-27
1.97278e-27
1.98162e-27
3.44336e-30
3.11441e-29
3.65677e-27
1.75972e-28
9.13923e-29
1.01272e-28
7.19467e-29
4.71512e-29
7.47532e-25
7.60025e-25
8.83697e-27
2.59864e-27
1.87431e-28
2.39067e-27
9.39867e-28
4.13036e-27
3.30822e-27
3.64557e-28
1.7403e-27
2.05215e-27
1.49613e-27
7.00105e-29
5.26557e-27
1.33337e-27
1.88992e-29
5.42143e-27
1.7324e-29
2.94748e-29
7.91913e-24
5.42672e-23
2.87585e-24
1.37602e-25
2.5987e-27
4.33802e-28
3.0229e-27
2.23615e-29
3.62298e-27
5.18179e-29
7.09644e-28
3.48214e-27
2.97309e-31
2.18121e-27
2.54505e-28
2.07764e-28
3.40973e-30
4.21278e-30
2.77709e-29
2.27249e-28
8.81138e-24
1.43345e-23
9.33415e-25
2.66048e-26
2.5587e-26
1.99642e-26
1.5296e-26
1.35585e-26
9.76512e-27
9.34322e-27
1.03325e-26
2.20818e-26
6.24589e-27
1.99705e-27
1.8744e-28
1.98244e-28
8.37845e-30
2.3346e-27
9.97592e-30
2.83034e-29
9.24031e-24
2.37143e-23
9.76399e-25
6.99031e-26
1.08035e-29
1.19331e-27
1.2444e-28
4.55994e-27
2.4674e-27
1.69776e-27
1.33356e-27
1.29899e-27
1.29482e-27
8.21761e-29
1.76485e-28
1.24922e-28
9.8464e-29
4.07373e-31
3.09293e-31
2.78633e-28
)
;

boundaryField
{
    movingWall
    {
        type            calculated;
        value           nonuniform List<scalar> 
20
(
6.09633e-23
3.8968e-23
8.24072e-25
1.52099e-25
2.52898e-26
6.122e-26
3.25442e-26
5.28272e-26
1.87548e-26
1.65068e-26
3.48183e-26
2.39378e-26
8.43767e-27
7.07356e-27
6.51293e-28
1.24922e-28
9.8464e-29
3.86454e-27
3.09293e-31
8.36829e-28
)
;
    }
    fixedWalls
    {
        type            calculated;
        value           nonuniform List<scalar> 
60
(
2.00893e-21
3.02327e-25
1.33356e-21
1.10147e-21
2.10589e-23
8.97985e-22
1.99112e-21
3.56828e-22
3.326e-22
1.80271e-21
2.13138e-21
7.10073e-22
1.08692e-23
8.42502e-22
1.81422e-21
9.07642e-22
1.23001e-23
9.83875e-22
2.79698e-22
4.08903e-22
7.70263e-29
1.4754e-28
1.10326e-29
2.86321e-27
7.67395e-28
1.33872e-28
3.68773e-28
1.13033e-28
2.55521e-28
3.14784e-28
1.24949e-27
4.6316e-30
8.0531e-29
7.26585e-29
1.16043e-28
1.57274e-28
8.48038e-29
1.36607e-28
2.81158e-29
1.84671e-28
2.06247e-22
1.56771e-22
5.7598e-24
5.2321e-25
1.72363e-27
2.32847e-26
2.20106e-26
1.54275e-26
6.55352e-28
3.68958e-27
3.03564e-29
3.22775e-27
3.54635e-27
4.05206e-29
2.11537e-29
4.84661e-29
6.41653e-30
7.63248e-27
1.5979e-31
1.53935e-27
)
;
    }
    frontAndBack
    {
        type            empty;
    }
}


// ************************************************************************* //
