/*--------------------------------*- C++ -*----------------------------------*\
| =========                 |                                                 |
| \\      /  F ield         | OpenFOAM: The Open Source CFD Toolbox           |
|  \\    /   O peration     | Version:  2506                                  |
|   \\  /    A nd           | Website:  www.openfoam.com                      |
|    \\/     M anipulation  |                                                 |
\*---------------------------------------------------------------------------*/
FoamFile
{
    version     2.0;
    format      ascii;
    arch        "LSB;label=32;scalar=64";
    class       volScalarField;
    location    "7.5";
    object      flowTypeField;
}
// * * * * * * * * * * * * * * * * * * * * * * * * * * * * * * * * * * * * * //

dimensions      [0 0 0 0 0 0 0];

internalField   nonuniform List<scalar> 
400
(
0.416504
0.0599698
0.0391369
0.0544922
0.35067
0.0165533
0.357179
0.887374
0.013299
-0.000849734
0.239775
0.175945
0.762445
-0.0305684
0.079817
0.185477
0.0742181
0.592153
0.940755
0.561442
0.982334
0.933742
0.955254
0.724579
0.266992
-0.106161
0.0020348
0.18091
0.593605
0.90217
0.0509562
-0.135965
0.0123474
0.871186
0.445635
0.0503204
0.816181
-0.093445
0.747635
0.140181
0.622149
0.138554
0.0529594
0.219632
0.0588814
0.713116
0.201341
0.0859414
-0.0230257
-0.0745726
0.0434749
0.367705
0.128185
0.0113201
0.145364
0.0298928
-0.0804916
-0.0442616
0.231757
0.162273
0.636093
0.1281
0.112947
-0.0463206
0.806932
-0.337239
0.0514124
0.0273921
-7.19144e-06
0.127267
0.161764
0.615787
0.0976337
0.325444
0.0646148
-0.211942
0.00206745
-0.326025
0.459148
-0.298954
0.969936
0.709696
0.713475
0.613746
0.775554
0.933006
0.472022
0.530726
-0.0357151
-0.123788
-0.0869896
0.277218
0.254199
-0.0474134
0.338206
0.330993
0.542347
0.796385
-0.239485
0.168975
0.66983
0.159467
0.138167
0.0194258
0.293466
0.070656
0.131774
0.65252
0.536366
-0.0482679
-0.0365759
0.515547
-0.33542
-0.285317
-0.186071
0.545178
0.349527
0.633621
0.857707
0.398428
0.319472
0.0784615
-0.0051654
0.27178
-0.62732
0.270812
0.165532
0.189496
-0.110806
0.0618771
0.00177955
-0.166364
-0.0536977
-0.0158245
0.271382
0.823192
0.18606
0.754801
0.859126
0.224221
0.781502
0.237149
0.218532
0.431561
0.107387
0.59783
0.943278
0.692268
0.554501
0.112074
0.0204775
0.414285
0.00513847
0.0730372
0.0469504
0.0988784
-0.590644
-0.0557792
0.291089
0.000913184
0.741611
0.247148
0.183417
0.524825
-0.0090779
0.250421
0.185301
0.917284
-0.0667863
0.0498127
-0.147673
-0.521958
0.729867
0.758467
-0.000444433
0.0612915
-0.201704
0.146432
0.558883
-0.393696
0.326779
0.0504138
0.0048863
0.0214191
0.164104
-0.372795
0.197381
0.0619784
0.294848
-0.0770464
0.280171
0.888426
0.533942
0.0788961
0.353002
-0.254413
0.359122
0.581441
0.802631
0.557525
0.162768
0.0255017
-0.0167198
-0.0299118
-0.39237
0.569541
0.182067
0.156369
0.0377085
-0.09592
-0.116649
0.143956
0.30783
0.181983
0.299822
-0.0294329
-0.161649
-0.00377192
0.113957
-0.674477
0.513359
0.0903289
-0.0241476
0.332859
-0.298841
0.0982974
-0.0838265
0.0339054
0.0891442
0.500457
0.112016
-0.188066
-0.264796
0.035214
0.489729
0.0683467
-0.263089
-0.00833229
0.886077
0.315997
0.984879
0.672272
0.746693
0.408006
0.872527
0.820581
0.230671
0.0523041
0.524287
0.141118
0.928836
0.501253
0.940235
0.888579
0.00361066
0.862224
0.440302
0.183132
0.305899
0.0770481
0.451225
0.0706896
-0.0516009
0.160406
-0.339146
0.28324
0.0558769
0.290423
0.467628
0.223503
0.268538
-0.139502
-0.22284
-0.199237
0.078202
0.354003
0.656736
0.626255
0.25446
0.00347303
0.119899
0.0396506
-0.0424317
0.0738405
-0.704004
0.477809
-0.28342
0.013653
-0.00144435
0.0344811
-0.0627153
-0.0827491
0.275906
0.346078
0.12421
-0.0239873
0.206292
0.638195
0.779244
0.00849626
0.616309
0.12029
0.0964331
0.0828744
0.258677
-0.538973
-0.0139043
0.269025
0.647968
-0.0656838
-0.152842
-0.143678
0.260495
0.0774684
0.00344281
0.460597
0.732456
0.48792
0.0156642
0.00150534
0.930626
0.75173
0.882537
0.683094
0.802098
-0.100609
0.279545
0.079644
0.00208224
0.527096
0.23313
-0.171001
0.00346892
0.724502
-0.256969
-0.13998
0.30217
-0.180327
0.359326
0.227448
0.616451
0.127647
0.0767969
0.142844
0.464205
0.115729
-0.419996
0.446522
-0.253905
0.622222
-0.1194
0.0348595
0.982569
0.328415
0.415055
0.429549
0.946973
0.410767
0.869425
0.219143
0.748159
0.283476
0.188806
0.370668
-0.301122
-0.0417643
-0.0467221
0.157623
-0.0304575
0.0165766
-0.0361639
-0.107138
-0.0297725
0.327911
0.619819
0.398307
0.0182362
-0.102084
0.770222
0.660886
0.657224
0.115646
0.165654
0.0755121
0.943714
0.184314
0.586033
-0.0786717
-0.113318
0.0444542
0.143426
0.316478
0.228491
0.599794
0.653941
0.1989
0.687841
0.959432
0.927109
0.343509
)
;

boundaryField
{
    movingWall
    {
        type            calculated;
        value           nonuniform List<scalar> 
20
(
0.590167
0.0969489
0.374509
-0.032761
0.289267
0.018043
0.0714386
-0.0265449
-0.0755497
-0.00876146
0.0152075
0.0418499
0.0439637
0.1098
0.551592
0.60175
0.684586
0.149376
0.928022
0.204906
)
;
    }
    fixedWalls
    {
        type            calculated;
        value           nonuniform List<scalar> 
60
(
0.0577242
0.967715
0.119612
0.125309
0.721392
0.15081
0.0586352
0.251067
0.239692
0.0444664
0.0199589
0.0710221
0.717203
0.053062
0.0235575
0.122875
0.773378
0.120308
0.272144
0.141285
0.666583
0.0280929
0.474227
0.26183
0.274437
0.626044
0.0243089
0.00259597
0.513011
0.453701
0.117011
0.568857
0.0386373
0.00131045
0.00411756
0.000466616
0.110236
0.387877
0.773627
0.569305
0.638387
0.155038
0.269023
0.0559976
0.767526
-0.172993
0.055982
0.0227767
0.316028
0.109184
0.747759
0.0979028
0.0903713
0.699588
0.735097
0.000567977
0.807995
0.0942188
0.958403
-0.0157389
)
;
    }
    frontAndBack
    {
        type            empty;
    }
}


// ************************************************************************* //
