/*--------------------------------*- C++ -*----------------------------------*\
| =========                 |                                                 |
| \\      /  F ield         | OpenFOAM: The Open Source CFD Toolbox           |
|  \\    /   O peration     | Version:  2506                                  |
|   \\  /    A nd           | Website:  www.openfoam.com                      |
|    \\/     M anipulation  |                                                 |
\*---------------------------------------------------------------------------*/
FoamFile
{
    version     2.0;
    format      ascii;
    arch        "LSB;label=32;scalar=64";
    class       surfaceScalarField;
    location    "7.5";
    object      fluxField;
}
// * * * * * * * * * * * * * * * * * * * * * * * * * * * * * * * * * * * * * //

dimensions      [0 3 -1 0 0 0 0];

oriented        oriented;

internalField   nonuniform List<scalar> 
760
(
-5e-05
4.02995e-18
-5e-05
-8.83712e-19
-5e-05
2.10894e-19
-5e-05
-4.08571e-20
-5e-05
9.80265e-21
-5e-05
-1.78177e-21
-5e-05
4.17785e-21
-5e-05
3.91749e-21
-5e-05
4.05113e-21
-5e-05
4.40545e-21
-5e-05
3.89091e-21
-5e-05
3.40325e-21
-5e-05
-3.70692e-22
-5e-05
7.43275e-22
-5e-05
7.11044e-22
-5e-05
-1.8354e-21
-5e-05
-3.87113e-21
-5e-05
-8.46998e-22
-5e-05
2.55724e-21
1.84935e-21
-5e-05
-3.59146e-18
-5e-05
7.8801e-19
-5e-05
-1.81236e-19
-5e-05
4.35909e-20
-5e-05
-9.3085e-21
-5e-05
2.27136e-21
-5e-05
3.29404e-21
-5e-05
5.56694e-21
-5e-05
2.96936e-21
-5e-05
-7.97277e-22
-5e-05
-5.50604e-22
-5e-05
1.01957e-21
-5e-05
-9.90965e-22
-5e-05
-1.05736e-21
-5e-05
-2.16068e-21
-5e-05
-2.57434e-21
-5e-05
-5.62843e-21
-5e-05
-5.73566e-21
-5e-05
-2.5921e-21
7.80031e-22
-5e-05
-3.1801e-19
-5e-05
6.67149e-20
-5e-05
-1.14376e-20
-5e-05
4.90065e-21
-5e-05
7.92188e-23
-5e-05
-1.86958e-21
-5e-05
-2.76676e-21
-5e-05
5.32176e-22
-5e-05
-2.64741e-21
-5e-05
-6.06784e-21
-5e-05
-4.86826e-21
-5e-05
-4.78733e-21
-5e-05
-1.81467e-23
-5e-05
3.08719e-21
-5e-05
1.67546e-21
-5e-05
-3.68437e-22
-5e-05
-2.60016e-21
-5e-05
-7.2975e-21
-5e-05
-5.9475e-21
-1.63502e-21
-5e-05
2.78196e-18
-5e-05
-6.07321e-19
-5e-05
1.45728e-19
-5e-05
-3.21023e-20
-5e-05
8.81181e-21
-5e-05
-3.11959e-21
-5e-05
-3.28862e-21
-5e-05
-3.45257e-21
-5e-05
-4.3342e-21
-5e-05
-4.81501e-21
-5e-05
6.98919e-24
-5e-05
7.0309e-22
-5e-05
3.03665e-21
-5e-05
5.25274e-21
-5e-05
4.38444e-21
-5e-05
2.07032e-22
-5e-05
-2.8426e-21
-5e-05
-6.44582e-21
-5e-05
-4.16026e-21
-2.28104e-21
-5e-05
-3.3084e-18
-5e-05
7.23909e-19
-5e-05
-1.74814e-19
-5e-05
3.51779e-20
-5e-05
-5.43485e-21
-5e-05
3.46152e-21
-5e-05
-1.10783e-21
-5e-05
-5.65317e-21
-5e-05
-5.87449e-21
-5e-05
-4.38661e-21
-5e-05
1.50258e-21
-5e-05
1.78071e-21
-5e-05
1.40995e-21
-5e-05
4.79513e-21
-5e-05
7.208e-21
-5e-05
5.57716e-21
-5e-05
-7.68607e-22
-5e-05
-3.1584e-21
-5e-05
-2.11921e-21
-1.61099e-21
-5e-05
1.33435e-18
-5e-05
-3.02395e-19
-5e-05
6.21484e-20
-5e-05
-1.69165e-20
-5e-05
6.91354e-21
-5e-05
5.47955e-21
-5e-05
3.11038e-21
-5e-05
-5.4411e-21
-5e-05
-3.71927e-21
-5e-05
2.8741e-22
-5e-05
-2.47131e-22
-5e-05
-3.50437e-21
-5e-05
1.28107e-21
-5e-05
7.36354e-21
-5e-05
9.86202e-21
-5e-05
7.8771e-21
-5e-05
2.56893e-21
-5e-05
7.8246e-22
-5e-05
6.91371e-22
-6.74679e-22
-5e-05
2.4235e-18
-5e-05
-5.46243e-19
-5e-05
1.21349e-19
-5e-05
-3.04754e-20
-5e-05
5.34117e-21
-5e-05
1.42459e-21
-5e-05
1.69851e-21
-5e-05
-2.02619e-21
-5e-05
2.17817e-21
-5e-05
4.02265e-21
-5e-05
4.79973e-23
-5e-05
-1.684e-21
-5e-05
2.72605e-21
-5e-05
3.8721e-21
-5e-05
1.89141e-21
-5e-05
-3.03782e-21
-5e-05
-6.14517e-22
-5e-05
4.21128e-21
-5e-05
6.91075e-21
9.36424e-22
-5e-05
-3.39173e-18
-5e-05
7.20476e-19
-5e-05
-1.77179e-19
-5e-05
3.28459e-20
-5e-05
-1.40426e-20
-5e-05
-2.57115e-21
-5e-05
-4.00918e-21
-5e-05
-7.51173e-22
-5e-05
-8.64019e-22
-5e-05
-2.97771e-21
-5e-05
-2.81819e-21
-5e-05
2.48407e-21
-5e-05
2.08703e-21
-5e-05
-2.81791e-21
-5e-05
-6.03936e-21
-5e-05
-5.90869e-21
-5e-05
1.16266e-21
-5e-05
9.26882e-21
-5e-05
9.67037e-21
6.58544e-22
-5e-05
2.2408e-18
-5e-05
-5.08163e-19
-5e-05
1.12513e-19
-5e-05
-2.99601e-20
-5e-05
2.10462e-21
-5e-05
-5.84288e-21
-5e-05
-3.19911e-21
-5e-05
-2.93611e-21
-5e-05
-4.27603e-21
-5e-05
-2.88373e-21
-5e-05
-1.91308e-21
-5e-05
3.12885e-21
-5e-05
2.87763e-21
-5e-05
-2.2279e-21
-5e-05
-2.81054e-21
-5e-05
2.53128e-21
-5e-05
5.47179e-21
-5e-05
7.57684e-21
-5e-05
3.02727e-21
-1.84937e-21
-5e-05
-2.66803e-19
-5e-05
5.68174e-20
-5e-05
-8.30885e-21
-5e-05
4.5547e-21
-5e-05
1.57226e-21
-5e-05
-9.9711e-22
-5e-05
-1.44675e-21
-5e-05
-5.85418e-22
-5e-05
-4.1769e-22
-5e-05
2.15873e-21
-5e-05
-8.76291e-22
-5e-05
-2.44998e-21
-5e-05
8.93432e-22
-5e-05
5.95867e-22
-5e-05
1.71159e-21
-5e-05
4.34741e-21
-5e-05
3.27e-21
-5e-05
-5.13314e-22
-5e-05
-5.36196e-21
-2.99849e-21
-5e-05
-1.86253e-18
-5e-05
4.21956e-19
-5e-05
-9.5592e-20
-5e-05
2.20208e-20
-5e-05
-4.04115e-21
-5e-05
2.36215e-21
-5e-05
5.25685e-22
-5e-05
4.9922e-21
-5e-05
3.84934e-21
-5e-05
2.48369e-21
-5e-05
-2.2453e-21
-5e-05
-1.63535e-21
-5e-05
5.56389e-21
-5e-05
9.6597e-21
-5e-05
6.34484e-21
-5e-05
3.3247e-21
-5e-05
3.19485e-21
-5e-05
-1.82061e-21
-5e-05
-5.79509e-21
-1.62051e-21
-5e-05
2.62299e-18
-5e-05
-5.7083e-19
-5e-05
1.23463e-19
-5e-05
-3.69625e-20
-5e-05
-6.8102e-22
-5e-05
-4.98306e-21
-5e-05
-1.63778e-21
-5e-05
1.68986e-21
-5e-05
3.38811e-21
-5e-05
2.90346e-21
-5e-05
1.4231e-21
-5e-05
4.0196e-21
-5e-05
8.44522e-21
-5e-05
1.1959e-20
-5e-05
6.26111e-21
-5e-05
2.28803e-21
-5e-05
3.10011e-21
-5e-05
1.4207e-21
-5e-05
-2.75724e-22
6.02967e-22
-5e-05
-2.21824e-18
-5e-05
4.69222e-19
-5e-05
-1.20338e-19
-5e-05
1.50537e-20
-5e-05
-1.38305e-20
-5e-05
-5.55977e-21
-5e-05
-4.83852e-21
-5e-05
-2.14716e-21
-5e-05
2.55638e-21
-5e-05
4.11419e-21
-5e-05
7.12322e-21
-5e-05
7.77023e-21
-5e-05
3.97768e-21
-5e-05
5.40622e-22
-5e-05
-2.78829e-21
-5e-05
-1.33818e-21
-5e-05
1.27369e-21
-5e-05
2.02217e-21
-5e-05
2.39237e-21
1.54661e-21
-5e-05
1.29072e-18
-5e-05
-2.8521e-19
-5e-05
5.85513e-20
-5e-05
-2.2294e-20
-5e-05
-3.22672e-21
-5e-05
-4.90537e-21
-5e-05
-1.88734e-21
-5e-05
4.42478e-22
-5e-05
3.57109e-21
-5e-05
4.834e-21
-5e-05
7.74814e-21
-5e-05
1.02923e-20
-5e-05
6.86894e-21
-5e-05
-2.23238e-22
-5e-05
-2.38835e-21
-5e-05
1.65468e-21
-5e-05
4.75493e-21
-5e-05
2.9867e-21
-5e-05
2.72127e-21
1.70557e-21
-5e-05
1.04261e-18
-5e-05
-2.17214e-19
-5e-05
4.71979e-20
-5e-05
-1.55449e-20
-5e-05
-3.40462e-21
-5e-05
-2.59582e-21
-5e-05
1.90357e-21
-5e-05
2.47915e-21
-5e-05
4.0207e-21
-5e-05
5.5969e-21
-5e-05
6.05534e-21
-5e-05
6.18019e-21
-5e-05
6.05844e-21
-5e-05
2.68861e-21
-5e-05
4.22591e-21
-5e-05
4.54894e-21
-5e-05
1.97534e-21
-5e-05
1.03753e-22
-5e-05
2.97994e-21
2.06062e-21
-5e-05
-3.28967e-18
-5e-05
7.26385e-19
-5e-05
-1.65935e-19
-5e-05
3.75512e-20
-5e-05
-1.37141e-20
-5e-05
-1.16931e-21
-5e-05
1.24201e-21
-5e-05
3.1009e-21
-5e-05
4.14615e-21
-5e-05
5.05788e-21
-5e-05
5.03445e-21
-5e-05
4.10362e-21
-5e-05
5.31207e-21
-5e-05
3.57042e-21
-5e-05
4.32687e-21
-5e-05
-7.05086e-22
-5e-05
-6.49701e-21
-5e-05
-2.54802e-21
-5e-05
2.42477e-21
1.92243e-21
-5e-05
2.65898e-18
-5e-05
-5.72317e-19
-5e-05
1.39091e-19
-5e-05
-2.63143e-20
-5e-05
5.63567e-21
-5e-05
-3.45071e-21
-5e-05
2.00618e-21
-5e-05
6.49816e-21
-5e-05
2.72764e-21
-5e-05
-1.22352e-21
-5e-05
1.5687e-22
-5e-05
2.6152e-21
-5e-05
3.15482e-21
-5e-05
2.54529e-21
-5e-05
3.15617e-21
-5e-05
-1.64529e-21
-5e-05
-4.65783e-21
-5e-05
5.44567e-22
-5e-05
3.19972e-22
1.52969e-22
-5e-05
1.62119e-18
-5e-05
-3.67925e-19
-5e-05
8.42289e-20
-5e-05
-1.50701e-20
-5e-05
1.07473e-20
-5e-05
6.09097e-22
-5e-05
8.62089e-22
-5e-05
3.42642e-21
-5e-05
-1.3203e-21
-5e-05
-5.35819e-21
-5e-05
-4.15861e-21
-5e-05
-4.77308e-21
-5e-05
-8.72831e-21
-5e-05
-5.80245e-21
-5e-05
-1.23962e-21
-5e-05
1.73953e-22
-5e-05
2.05824e-21
-5e-05
1.85018e-21
-5e-05
-2.1978e-21
-1.12966e-21
-5e-05
-3.40955e-18
-5e-05
7.09353e-19
-5e-05
-1.73069e-19
-5e-05
3.87458e-20
-5e-05
-1.59589e-21
-5e-05
1.35825e-21
-5e-05
-5.45654e-21
-5e-05
-4.54285e-21
-5e-05
-2.42133e-21
-5e-05
-1.58968e-21
-5e-05
-1.69936e-21
-5e-05
-4.28813e-21
-5e-05
-7.61327e-21
-5e-05
-5.95515e-21
-5e-05
-6.65546e-21
-5e-05
-3.19409e-21
-5e-05
2.27416e-21
-5e-05
1.33756e-21
-5e-05
-1.03055e-21
2.42515e-23
-5e-05
-5e-05
-5e-05
-5e-05
-5e-05
-5e-05
-5e-05
-5e-05
-5e-05
-5e-05
-5e-05
-5e-05
-5e-05
-5e-05
-5e-05
-5e-05
-5e-05
-5e-05
-5e-05
)
;

boundaryField
{
    movingWall
    {
        type            calculated;
        value           uniform -0;
    }
    fixedWalls
    {
        type            calculated;
        value           nonuniform List<scalar> 
60
(
5e-05
5e-05
5e-05
5e-05
5e-05
5e-05
5e-05
5e-05
5e-05
5e-05
5e-05
5e-05
5e-05
5e-05
5e-05
5e-05
5e-05
5e-05
5e-05
5e-05
-5e-05
-5e-05
-5e-05
-5e-05
-5e-05
-5e-05
-5e-05
-5e-05
-5e-05
-5e-05
-5e-05
-5e-05
-5e-05
-5e-05
-5e-05
-5e-05
-5e-05
-5e-05
-5e-05
-5e-05
0
0
0
0
0
0
0
0
0
0
0
0
0
0
0
0
0
0
0
0
)
;
    }
    frontAndBack
    {
        type            empty;
    }
}


// ************************************************************************* //
