/*--------------------------------*- C++ -*----------------------------------*\
| =========                 |                                                 |
| \\      /  F ield         | OpenFOAM: The Open Source CFD Toolbox           |
|  \\    /   O peration     | Version:  2506                                  |
|   \\  /    A nd           | Website:  www.openfoam.com                      |
|    \\/     M anipulation  |                                                 |
\*---------------------------------------------------------------------------*/
FoamFile
{
    version     2.0;
    format      ascii;
    arch        "LSB;label=32;scalar=64";
    class       volVectorField;
    location    "7.5";
    object      gradPhi;
}
// * * * * * * * * * * * * * * * * * * * * * * * * * * * * * * * * * * * * * //

dimensions      [0 2 -1 0 0 0 0];

internalField   nonuniform List<vector> 
400
(
(-0.02 9.72396e-17 0)
(1.45584e-16 -1.45014e-16 0)
(-4.1359e-17 4.17526e-17 0)
(4.96308e-18 -5.87618e-18 0)
(-1.65436e-18 1.37348e-18 0)
(1.65436e-18 -5.17885e-19 0)
(-1.65436e-18 5.65538e-19 0)
(-1.65436e-18 1.06085e-18 0)
(0 8.20877e-19 0)
(-1.65436e-18 1.13124e-18 0)
(0 8.17307e-19 0)
(0 4.64647e-19 0)
(0 -4.47473e-19 0)
(0 -2.10431e-19 0)
(0 4.70738e-19 0)
(0 -3.10613e-19 0)
(0 -9.5263e-19 0)
(0 -4.09285e-19 0)
(0 1.15901e-18 0)
(0 9.0507e-19 0)
(-0.02 -1.98802e-16 0)
(-2.69661e-16 2.70512e-16 0)
(7.7755e-17 -7.77354e-17 0)
(-1.32349e-17 1.23541e-17 0)
(4.96308e-18 -3.10611e-18 0)
(-1.65436e-18 9.23328e-19 0)
(-1.65436e-18 9.13401e-19 0)
(1.65436e-18 1.67789e-19 0)
(-1.65436e-18 -1.10366e-19 0)
(1.65436e-18 -1.58193e-18 0)
(3.30872e-18 -1.45e-18 0)
(-1.65436e-18 4.72709e-19 0)
(-1.65436e-18 6.33535e-19 0)
(0 2.6406e-19 0)
(1.65436e-18 -1.28046e-18 0)
(0 -2.9112e-19 0)
(1.65436e-18 -1.51555e-19 0)
(0 -4.66083e-19 0)
(1.65436e-18 -2.1023e-18 0)
(0 -1.02978e-18 0)
(-0.02 8.57617e-17 0)
(1.05879e-16 -1.07325e-16 0)
(-3.30872e-17 3.36507e-17 0)
(4.96308e-18 -5.24237e-18 0)
(-1.65436e-18 2.18482e-18 0)
(0 -5.8882e-19 0)
(4.96308e-18 -2.81149e-18 0)
(1.65436e-18 -1.54999e-18 0)
(1.65436e-18 -1.32721e-18 0)
(0 -6.09375e-19 0)
(-1.65436e-18 3.07652e-19 0)
(3.30872e-18 -2.72077e-18 0)
(1.65436e-18 -4.09429e-19 0)
(-1.65436e-18 6.86866e-19 0)
(0 1.09737e-18 0)
(-1.65436e-18 3.58334e-19 0)
(-1.65436e-18 7.96413e-19 0)
(1.65436e-18 -5.50781e-19 0)
(0 -3.39024e-19 0)
(0 -1.62246e-19 0)
(-0.02 8.89551e-17 0)
(1.1746e-16 -1.17939e-16 0)
(-3.14329e-17 3.17131e-17 0)
(6.61744e-18 -5.84925e-18 0)
(-1.65436e-18 9.27154e-19 0)
(1.65436e-18 -6.47536e-19 0)
(-1.65436e-18 6.35658e-19 0)
(0 4.78277e-20 0)
(1.65436e-18 -2.94336e-19 0)
(0 7.09582e-20 0)
(1.65436e-18 -7.3871e-20 0)
(-3.30872e-18 2.02134e-18 0)
(0 9.22877e-19 0)
(0 1.93944e-19 0)
(-1.65436e-18 7.94698e-19 0)
(0 4.45393e-19 0)
(0 -2.16826e-19 0)
(0 1.0454e-19 0)
(-1.65436e-18 6.52498e-19 0)
(0 -4.49659e-19 0)
(-0.02 -1.67118e-16 0)
(-2.2003e-16 2.19813e-16 0)
(6.45201e-17 -6.45777e-17 0)
(-8.27181e-18 9.40488e-18 0)
(1.65436e-18 -2.08375e-18 0)
(-1.65436e-18 1.62017e-18 0)
(0 5.66578e-19 0)
(0 -1.45003e-18 0)
(0 -9.40658e-20 0)
(1.65436e-18 -2.1029e-19 0)
(-1.65436e-18 8.54156e-19 0)
(-1.65436e-18 1.04138e-18 0)
(0 -8.65832e-21 0)
(0 1.61047e-19 0)
(0 3.98184e-19 0)
(0 9.08516e-19 0)
(-1.65436e-18 7.05889e-20 0)
(0 3.34224e-19 0)
(-1.65436e-18 1.78867e-19 0)
(0 5.78785e-19 0)
(-0.02 1.34701e-16 0)
(1.80325e-16 -1.80431e-16 0)
(-4.96308e-17 4.79872e-17 0)
(8.27181e-18 -7.78508e-18 0)
(-1.65436e-18 1.8339e-18 0)
(0 2.15583e-19 0)
(-1.65436e-18 1.08069e-18 0)
(0 1.57437e-18 0)
(0 1.98723e-19 0)
(-3.30872e-18 1.3809e-18 0)
(1.65436e-18 -6.08351e-19 0)
(3.30872e-18 -2.86822e-18 0)
(0 -1.17865e-18 0)
(0 -1.31386e-19 0)
(0 9.34858e-20 0)
(0 8.52793e-19 0)
(-1.65436e-18 1.26624e-18 0)
(-1.65436e-18 1.66014e-18 0)
(0 3.31072e-19 0)
(0 -1.30991e-19 0)
(-0.02 5.24914e-18 0)
(1.32349e-17 -1.32394e-17 0)
(-9.92617e-18 1.09569e-17 0)
(1.65436e-18 -1.22099e-18 0)
(1.65436e-18 -3.55303e-19 0)
(0 -4.09484e-19 0)
(0 -5.02392e-19 0)
(0 -1.21655e-18 0)
(0 8.75182e-19 0)
(0 1.12474e-18 0)
(-1.65436e-18 6.58424e-19 0)
(0 1.27699e-18 0)
(-3.30872e-18 1.2955e-18 0)
(0 4.98199e-19 0)
(0 -1.9937e-19 0)
(3.30872e-18 -2.76813e-18 0)
(1.65436e-18 -1.04593e-18 0)
(0 -4.94321e-19 0)
(-1.65436e-18 1.48946e-18 0)
(0 5.7863e-19 0)
(-0.02 -1.04482e-16 0)
(-1.65436e-16 1.64745e-16 0)
(5.79026e-17 -5.86319e-17 0)
(-6.61744e-18 8.4415e-18 0)
(1.65436e-18 -3.00702e-18 0)
(1.65436e-18 -1.48547e-18 0)
(3.30872e-18 -1.9594e-18 0)
(-1.65436e-18 1.76401e-18 0)
(0 2.61183e-19 0)
(1.65436e-18 -2.32128e-18 0)
(0 -1.39037e-18 0)
(0 9.27994e-19 0)
(0 -4.61967e-19 0)
(1.65436e-18 -2.61114e-18 0)
(3.30872e-18 -3.48378e-18 0)
(1.65436e-18 -7.9666e-19 0)
(0 2.45397e-19 0)
(-1.65436e-18 2.21177e-18 0)
(-1.65436e-18 9.51416e-19 0)
(0 2.04665e-19 0)
(-0.02 9.98377e-17 0)
(1.5551e-16 -1.5382e-16 0)
(-5.79026e-17 5.69398e-17 0)
(8.27181e-18 -8.84173e-18 0)
(-1.65436e-18 2.27697e-18 0)
(0 7.84292e-20 0)
(-1.65436e-18 1.43073e-18 0)
(1.65436e-18 -1.22246e-18 0)
(1.65436e-18 -1.26801e-18 0)
(0 5.10598e-19 0)
(0 -1.25205e-19 0)
(0 3.77743e-20 0)
(0 3.00597e-19 0)
(-1.65436e-18 1.17477e-18 0)
(-1.65436e-18 1.86353e-18 0)
(-3.30872e-18 2.2866e-18 0)
(-1.65436e-18 1.05107e-18 0)
(0 -1.17715e-18 0)
(3.30872e-18 -1.6052e-18 0)
(0 -8.98109e-19 0)
(-0.02 -4.76525e-17 0)
(-6.78288e-17 6.92282e-17 0)
(2.31611e-17 -2.43435e-17 0)
(-6.61744e-18 5.55589e-18 0)
(1.65436e-18 2.62274e-19 0)
(-1.65436e-18 3.47596e-19 0)
(0 -2.04531e-19 0)
(0 7.32972e-19 0)
(0 4.95767e-19 0)
(0 9.1196e-19 0)
(-1.65436e-18 1.7769e-18 0)
(1.65436e-18 -1.11204e-18 0)
(0 -3.31586e-19 0)
(0 -4.63335e-19 0)
(0 5.66553e-20 0)
(0 1.41458e-19 0)
(1.65436e-18 3.88708e-20 0)
(0 -8.18591e-19 0)
(3.30872e-18 -2.08358e-18 0)
(0 -5.50298e-19 0)
(-0.02 -3.78547e-17 0)
(-4.46678e-17 4.44337e-17 0)
(1.48893e-17 -1.48162e-17 0)
(-3.30872e-18 1.94184e-18 0)
(0 -3.18177e-19 0)
(0 9.78641e-19 0)
(-1.65436e-18 3.9296e-19 0)
(0 1.48947e-18 0)
(-1.65436e-18 1.71023e-18 0)
(0 4.67148e-20 0)
(1.65436e-18 -1.67171e-18 0)
(0 1.88413e-19 0)
(-1.65436e-18 1.04233e-18 0)
(-3.30872e-18 2.68594e-18 0)
(-1.65436e-18 1.95771e-18 0)
(-1.65436e-18 -1.24218e-20 0)
(1.65436e-18 -7.69894e-19 0)
(0 -1.37749e-18 0)
(1.65436e-18 -8.63425e-20 0)
(0 3.79826e-19 0)
(-0.02 7.35339e-17 0)
(1.05879e-16 -1.05567e-16 0)
(-4.1359e-17 3.94738e-17 0)
(8.27181e-18 -7.79063e-18 0)
(1.65436e-18 -1.65898e-18 0)
(1.65436e-18 -1.16532e-18 0)
(0 -7.47108e-19 0)
(0 -1.30568e-18 0)
(1.65436e-18 -9.22492e-19 0)
(0 3.77992e-19 0)
(-1.65436e-18 1.00707e-18 0)
(0 7.35915e-19 0)
(0 -3.59662e-19 0)
(0 4.40324e-19 0)
(0 -4.07688e-19 0)
(1.65436e-18 -1.0543e-19 0)
(-1.65436e-18 5.48889e-19 0)
(-1.65436e-18 1.77484e-18 0)
(-1.65436e-18 1.59213e-18 0)
(0 1.20833e-18 0)
(-0.02 -4.51796e-17 0)
(-8.93355e-17 8.9437e-17 0)
(4.46678e-17 -4.43827e-17 0)
(-6.61744e-18 5.65792e-18 0)
(0 4.63539e-19 0)
(1.65436e-18 -9.89899e-19 0)
(0 -1.31832e-20 0)
(0 -7.96138e-19 0)
(0 2.11381e-19 0)
(0 -3.80328e-19 0)
(-1.65436e-18 1.8491e-18 0)
(-1.65436e-18 1.61122e-18 0)
(0 4.77571e-20 0)
(1.65436e-18 -3.14922e-18 0)
(1.65436e-18 -1.98888e-18 0)
(3.30872e-18 -1.33511e-18 0)
(1.65436e-18 -1.18743e-18 0)
(0 -8.83208e-19 0)
(0 6.06587e-19 0)
(0 -6.16331e-19 0)
(-0.02 2.72907e-17 0)
(5.9557e-17 -6.05076e-17 0)
(-3.14329e-17 3.20655e-17 0)
(3.30872e-18 -4.04767e-18 0)
(0 -2.39061e-19 0)
(-1.65436e-18 1.06171e-18 0)
(0 1.19076e-19 0)
(0 9.02088e-19 0)
(0 1.79977e-20 0)
(0 6.94038e-19 0)
(1.65436e-18 -9.3387e-19 0)
(0 -3.81262e-19 0)
(-1.65436e-18 6.29265e-19 0)
(0 8.97173e-19 0)
(0 -1.31737e-19 0)
(0 7.35161e-19 0)
(-1.65436e-18 1.94498e-18 0)
(0 1.47212e-18 0)
(0 -4.03272e-19 0)
(0 4.07247e-19 0)
(-0.02 8.42578e-18 0)
(9.92617e-18 -1.12016e-17 0)
(0 -2.41563e-21 0)
(0 1.42993e-19 0)
(-1.65436e-18 4.6166e-19 0)
(1.65436e-18 -3.28172e-19 0)
(0 7.03865e-19 0)
(-1.65436e-18 4.94417e-19 0)
(-1.65436e-18 5.33219e-19 0)
(1.65436e-18 -2.55419e-19 0)
(0 1.13785e-19 0)
(0 -4.71814e-19 0)
(0 -5.76208e-19 0)
(0 2.84385e-20 0)
(-1.65436e-18 1.73858e-18 0)
(0 1.31344e-18 0)
(0 -1.26147e-18 0)
(1.65436e-18 -1.66237e-18 0)
(-1.65436e-18 5.32816e-19 0)
(0 9.78037e-20 0)
(-0.02 -1.12732e-16 0)
(-1.50547e-16 1.51513e-16 0)
(4.1359e-17 -4.28204e-17 0)
(-8.27181e-18 9.57073e-18 0)
(1.65436e-18 -1.12855e-18 0)
(-1.65436e-18 8.83941e-19 0)
(0 5.73019e-19 0)
(0 -3.57893e-19 0)
(1.65436e-18 -3.87331e-19 0)
(0 6.78339e-19 0)
(0 8.28149e-19 0)
(0 -4.95492e-20 0)
(0 -3.34717e-19 0)
(0 -2.22765e-19 0)
(0 -8.23386e-21 0)
(1.65436e-18 -1.51013e-18 0)
(1.65436e-18 -1.92966e-18 0)
(0 -1.06305e-18 0)
(0 -9.15924e-19 0)
(0 -9.0929e-20 0)
(-0.02 1.53088e-16 0)
(2.03486e-16 -2.03306e-16 0)
(-6.12114e-17 6.00051e-17 0)
(1.15805e-17 -1.01195e-17 0)
(-3.30872e-18 2.94395e-18 0)
(0 -5.88194e-19 0)
(1.65436e-18 -7.49832e-19 0)
(0 8.71264e-19 0)
(-1.65436e-18 -3.60909e-19 0)
(3.30872e-18 -2.05753e-18 0)
(1.65436e-18 -2.66535e-18 0)
(1.65436e-18 -1.06572e-18 0)
(-1.65436e-18 6.25313e-19 0)
(-1.65436e-18 1.22005e-18 0)
(0 -3.50385e-19 0)
(1.65436e-18 -7.46372e-19 0)
(0 3.99134e-20 0)
(-1.65436e-18 2.03417e-18 0)
(0 5.57242e-19 0)
(0 -1.78961e-19 0)
(-0.02 1.49715e-18 0)
(-1.65436e-17 1.59028e-17 0)
(9.92617e-18 -9.63426e-18 0)
(0 7.29298e-19 0)
(0 8.96049e-19 0)
(-1.65436e-18 3.76212e-19 0)
(0 4.0724e-19 0)
(0 5.50736e-19 0)
(-1.65436e-18 -1.59744e-19 0)
(1.65436e-18 -7.68786e-19 0)
(1.65436e-18 -2.57333e-19 0)
(0 -9.77395e-19 0)
(3.30872e-18 -3.96857e-18 0)
(3.30872e-18 -3.87206e-18 0)
(1.65436e-18 -7.16599e-19 0)
(-1.65436e-18 1.57711e-18 0)
(-1.65436e-18 2.56744e-18 0)
(0 -1.97029e-19 0)
(1.65436e-18 -1.04852e-18 0)
(0 -1.23132e-18 0)
(-0.02 -1.50982e-16 0)
(-1.98523e-16 1.98322e-16 0)
(5.29396e-17 -5.31608e-17 0)
(-9.92617e-18 9.28614e-18 0)
(1.65436e-18 -1.01481e-18 0)
(-1.65436e-18 1.02498e-18 0)
(3.30872e-18 -1.66555e-18 0)
(3.30872e-18 -3.88197e-18 0)
(0 -1.10703e-18 0)
(0 1.04963e-18 0)
(0 1.0543e-18 0)
(0 2.69749e-19 0)
(-1.65436e-18 1.3683e-18 0)
(-1.65436e-18 2.15417e-18 0)
(1.65436e-18 -1.56434e-18 0)
(1.65436e-18 -2.22859e-18 0)
(0 -6.14374e-19 0)
(0 -8.38282e-20 0)
(0 2.4384e-19 0)
(-1.65436e-18 1.50413e-18 0)
(-0.02 8.92231e-17 0)
(1.25731e-16 -1.25555e-16 0)
(-3.47416e-17 3.55607e-17 0)
(4.96308e-18 -6.31186e-18 0)
(1.65436e-18 -7.1204e-19 0)
(0 -7.89817e-19 0)
(0 1.26473e-18 0)
(-3.30872e-18 2.12492e-18 0)
(-1.65436e-18 9.06939e-19 0)
(0 2.07834e-19 0)
(1.65436e-18 -9.07804e-20 0)
(-1.65436e-18 5.98653e-19 0)
(-1.65436e-18 1.21145e-18 0)
(0 2.55372e-19 0)
(-1.65436e-18 1.66053e-18 0)
(-1.65436e-18 1.48578e-18 0)
(0 -4.40037e-19 0)
(1.65436e-18 -4.08629e-19 0)
(0 2.89231e-19 0)
(0 -5.25863e-19 0)
)
;

boundaryField
{
    movingWall
    {
        type            extrapolatedCalculated;
        value           nonuniform List<vector> 
20
(
(-0.02 8.92231e-17 0)
(1.25731e-16 -1.25555e-16 0)
(-3.47416e-17 3.55607e-17 0)
(4.96308e-18 -6.31186e-18 0)
(1.65436e-18 -7.1204e-19 0)
(0 -7.89817e-19 0)
(0 1.26473e-18 0)
(-3.30872e-18 2.12492e-18 0)
(-1.65436e-18 9.06939e-19 0)
(0 2.07834e-19 0)
(1.65436e-18 -9.07804e-20 0)
(-1.65436e-18 5.98653e-19 0)
(-1.65436e-18 1.21145e-18 0)
(0 2.55372e-19 0)
(-1.65436e-18 1.66053e-18 0)
(-1.65436e-18 1.48578e-18 0)
(0 -4.40037e-19 0)
(1.65436e-18 -4.08629e-19 0)
(0 2.89231e-19 0)
(0 -5.25863e-19 0)
)
;
    }
    fixedWalls
    {
        type            extrapolatedCalculated;
        value           nonuniform List<vector> 
60
(
(-0.02 9.72396e-17 0)
(-0.02 -1.98802e-16 0)
(-0.02 8.57617e-17 0)
(-0.02 8.89551e-17 0)
(-0.02 -1.67118e-16 0)
(-0.02 1.34701e-16 0)
(-0.02 5.24914e-18 0)
(-0.02 -1.04482e-16 0)
(-0.02 9.98377e-17 0)
(-0.02 -4.76525e-17 0)
(-0.02 -3.78547e-17 0)
(-0.02 7.35339e-17 0)
(-0.02 -4.51796e-17 0)
(-0.02 2.72907e-17 0)
(-0.02 8.42578e-18 0)
(-0.02 -1.12732e-16 0)
(-0.02 1.53088e-16 0)
(-0.02 1.49715e-18 0)
(-0.02 -1.50982e-16 0)
(-0.02 8.92231e-17 0)
(0 9.0507e-19 0)
(0 -1.02978e-18 0)
(0 -1.62246e-19 0)
(0 -4.49659e-19 0)
(0 5.78785e-19 0)
(0 -1.30991e-19 0)
(0 5.7863e-19 0)
(0 2.04665e-19 0)
(0 -8.98109e-19 0)
(0 -5.50298e-19 0)
(0 3.79826e-19 0)
(0 1.20833e-18 0)
(0 -6.16331e-19 0)
(0 4.07247e-19 0)
(0 9.78037e-20 0)
(0 -9.0929e-20 0)
(0 -1.78961e-19 0)
(0 -1.23132e-18 0)
(-1.65436e-18 1.50413e-18 0)
(0 -5.25863e-19 0)
(-0.02 9.72396e-17 0)
(1.45584e-16 -1.45014e-16 0)
(-4.1359e-17 4.17526e-17 0)
(4.96308e-18 -5.87618e-18 0)
(-1.65436e-18 1.37348e-18 0)
(1.65436e-18 -5.17885e-19 0)
(-1.65436e-18 5.65538e-19 0)
(-1.65436e-18 1.06085e-18 0)
(0 8.20877e-19 0)
(-1.65436e-18 1.13124e-18 0)
(0 8.17307e-19 0)
(0 4.64647e-19 0)
(0 -4.47473e-19 0)
(0 -2.10431e-19 0)
(0 4.70738e-19 0)
(0 -3.10613e-19 0)
(0 -9.5263e-19 0)
(0 -4.09285e-19 0)
(0 1.15901e-18 0)
(0 9.0507e-19 0)
)
;
    }
    frontAndBack
    {
        type            empty;
    }
}


// ************************************************************************* //
