/*--------------------------------*- C++ -*----------------------------------*\
| =========                 |                                                 |
| \\      /  F ield         | OpenFOAM: The Open Source CFD Toolbox           |
|  \\    /   O peration     | Version:  2506                                  |
|   \\  /    A nd           | Website:  www.openfoam.com                      |
|    \\/     M anipulation  |                                                 |
\*---------------------------------------------------------------------------*/
FoamFile
{
    version     2.0;
    format      ascii;
    arch        "LSB;label=32;scalar=64";
    class       volTensorField;
    location    "7.5";
    object      gradU;
}
// * * * * * * * * * * * * * * * * * * * * * * * * * * * * * * * * * * * * * //

dimensions      [0 0 -1 0 0 0 0];

internalField   nonuniform List<tensor> 
400
(
(-1.32815e-12 1.26716e-11 0 1.57209e-12 1.61198e-11 0 0 0 0)
(1.89735e-12 -1.53979e-11 0 -4.60786e-13 -3.53485e-12 0 0 0 0)
(-5.14996e-13 3.39405e-12 0 0 8.43577e-13 0 0 0 0)
(5.42101e-14 -8.00902e-13 0 -2.71051e-14 -1.63428e-13 0 0 0 0)
(-2.71051e-14 1.63331e-13 0 5.42101e-14 3.92106e-14 0 0 0 0)
(0 -3.81637e-14 0 0 -7.12707e-15 0 0 0 0)
(0 1.22322e-14 0 0 1.67114e-14 0 0 0 0)
(-2.71051e-14 1.9799e-15 0 0 1.567e-14 0 0 0 0)
(-2.71051e-14 8.20529e-15 0 -5.42101e-14 1.62045e-14 0 0 0 0)
(0 2.91581e-15 0 -5.42101e-14 1.76218e-14 0 0 0 0)
(-2.71051e-14 -7.79185e-15 0 -5.42101e-14 1.55636e-14 0 0 0 0)
(0 -8.47176e-15 0 -5.42101e-14 1.3613e-14 0 0 0 0)
(2.71051e-14 4.59964e-15 0 0 -1.48277e-15 0 0 0 0)
(-2.71051e-14 9.00229e-15 0 -5.42101e-14 2.9731e-15 0 0 0 0)
(0 -6.50441e-15 0 -8.13152e-14 2.84418e-15 0 0 0 0)
(0 -9.84542e-15 0 -5.42101e-14 -7.34161e-15 0 0 0 0)
(2.71051e-14 3.58233e-15 0 -5.42101e-14 -1.54845e-14 0 0 0 0)
(2.71051e-14 9.67531e-15 0 0 -3.38799e-15 0 0 0 0)
(-2.71051e-14 -5.65313e-16 0 0 1.02289e-14 0 0 0 0)
(-2.71051e-14 -1.10771e-14 0 0 7.39741e-15 0 0 0 0)
(2.52077e-12 -8.66701e-14 0 2.98156e-13 -3.04856e-11 0 0 0 0)
(-3.52366e-12 1.21653e-13 0 -2.43945e-13 6.68689e-12 0 0 0 0)
(9.48677e-13 -2.26319e-14 0 -8.13152e-14 -1.56852e-12 0 0 0 0)
(-5.42101e-14 -3.46414e-15 0 -8.13152e-14 3.37792e-13 0 0 0 0)
(5.42101e-14 -7.03007e-15 0 -1.0842e-13 -7.64446e-14 0 0 0 0)
(0 1.56645e-14 0 -1.35525e-13 1.62125e-14 0 0 0 0)
(-5.42101e-14 1.05648e-14 0 -1.35525e-13 -3.53526e-15 0 0 0 0)
(5.42101e-14 -2.4868e-15 0 -8.13152e-14 6.59778e-15 0 0 0 0)
(-5.42101e-14 -6.25344e-15 0 -2.71051e-14 -4.32707e-15 0 0 0 0)
(5.42101e-14 -3.55669e-15 0 0 -2.08109e-14 0 0 0 0)
(0 3.78304e-15 0 -2.71051e-14 -1.7766e-14 0 0 0 0)
(0 -8.57464e-15 0 5.42101e-14 -9.53471e-15 0 0 0 0)
(0 -1.52395e-14 0 0 -2.48109e-15 0 0 0 0)
(-5.42101e-14 -4.67535e-15 0 0 -7.20252e-15 0 0 0 0)
(5.42101e-14 -3.8103e-15 0 2.71051e-14 -1.14869e-14 0 0 0 0)
(0 -8.48326e-15 0 0 -2.95574e-15 0 0 0 0)
(0 3.7129e-16 0 0 -7.02921e-15 0 0 0 0)
(2.71051e-14 1.60381e-14 0 -8.13152e-14 -1.95546e-14 0 0 0 0)
(5.42101e-14 1.13507e-14 0 0 -2.05973e-14 0 0 0 0)
(0 -6.54924e-15 0 0 -4.27729e-15 0 0 0 0)
(-1.30104e-12 -1.11271e-11 0 -5.3397e-12 1.30938e-11 0 0 0 0)
(1.57209e-12 1.35192e-11 0 1.57209e-12 -2.88518e-12 0 0 0 0)
(-4.60786e-13 -2.95504e-12 0 -5.42101e-14 6.79194e-13 0 0 0 0)
(1.0842e-13 6.91174e-13 0 1.35525e-13 -1.54761e-13 0 0 0 0)
(-1.0842e-13 -1.58248e-13 0 2.71051e-14 3.75509e-14 0 0 0 0)
(5.42101e-14 3.47456e-14 0 5.42101e-14 -1.65637e-14 0 0 0 0)
(5.42101e-14 2.61749e-15 0 8.13152e-14 -2.42432e-14 0 0 0 0)
(2.71051e-14 1.18809e-15 0 8.13152e-14 -2.0139e-14 0 0 0 0)
(5.42101e-14 -1.92034e-14 0 1.0842e-13 -2.24671e-14 0 0 0 0)
(0 -1.05232e-14 0 1.0842e-13 -2.10823e-14 0 0 0 0)
(0 3.48435e-15 0 1.0842e-13 -1.72706e-14 0 0 0 0)
(5.42101e-14 6.8132e-15 0 5.42101e-14 -2.32276e-14 0 0 0 0)
(0 6.93184e-15 0 5.42101e-14 3.89127e-15 0 0 0 0)
(0 -3.49673e-18 0 1.0842e-13 1.65782e-14 0 0 0 0)
(-5.42101e-14 -2.25764e-15 0 8.13152e-14 1.53445e-14 0 0 0 0)
(2.71051e-14 -5.38775e-15 0 5.42101e-14 8.82361e-15 0 0 0 0)
(-2.71051e-14 -1.30166e-14 0 8.13152e-14 1.21131e-14 0 0 0 0)
(0 -3.8928e-15 0 8.13152e-14 -6.24736e-15 0 0 0 0)
(0 1.4712e-14 0 0 -1.34216e-14 0 0 0 0)
(0 1.37975e-14 0 0 -9.66021e-15 0 0 0 0)
(-1.35525e-12 1.01219e-11 0 4.96022e-12 1.23999e-11 0 0 0 0)
(1.78893e-12 -1.22929e-11 0 -1.24683e-12 -2.69614e-12 0 0 0 0)
(-4.60786e-13 2.70779e-12 0 2.1684e-13 6.28663e-13 0 0 0 0)
(8.13152e-14 -6.45107e-13 0 5.42101e-14 -1.48012e-13 0 0 0 0)
(-2.71051e-14 1.31167e-13 0 1.6263e-13 3.49304e-14 0 0 0 0)
(0 -4.61295e-14 0 1.35525e-13 -5.00006e-15 0 0 0 0)
(0 6.98953e-15 0 1.35525e-13 -2.08744e-15 0 0 0 0)
(0 -7.1071e-16 0 5.42101e-14 -1.5939e-14 0 0 0 0)
(2.71051e-14 -7.19666e-15 0 5.42101e-14 -6.74716e-15 0 0 0 0)
(2.71051e-14 1.63978e-15 0 5.42101e-14 5.01133e-15 0 0 0 0)
(-2.71051e-14 1.63768e-15 0 5.42101e-14 1.9501e-14 0 0 0 0)
(-2.71051e-14 1.25872e-14 0 2.71051e-14 2.19617e-14 0 0 0 0)
(0 2.45662e-14 0 0 1.22192e-14 0 0 0 0)
(0 6.77791e-15 0 0 8.66222e-15 0 0 0 0)
(-2.71051e-14 -1.15649e-14 0 2.71051e-14 1.0836e-14 0 0 0 0)
(0 -1.17147e-14 0 5.42101e-14 2.30187e-15 0 0 0 0)
(0 -1.46997e-14 0 0 -9.69758e-16 0 0 0 0)
(0 -9.49655e-15 0 2.71051e-14 3.4067e-15 0 0 0 0)
(-2.71051e-14 7.93787e-15 0 2.71051e-14 7.14893e-15 0 0 0 0)
(0 1.65326e-14 0 -5.42101e-14 -2.58409e-15 0 0 0 0)
(2.43945e-12 -1.42337e-12 0 -8.94467e-13 -2.43615e-11 0 0 0 0)
(-3.2255e-12 1.748e-12 0 2.1684e-13 5.32492e-12 0 0 0 0)
(9.21572e-13 -4.0691e-13 0 -2.71051e-14 -1.28217e-12 0 0 0 0)
(-8.13152e-14 9.7442e-14 0 0 2.69121e-13 0 0 0 0)
(2.71051e-14 -1.52363e-14 0 -2.71051e-14 -5.69866e-14 0 0 0 0)
(-5.42101e-14 -2.27222e-15 0 0 2.63244e-14 0 0 0 0)
(2.71051e-14 -8.32142e-15 0 -2.71051e-14 8.72315e-15 0 0 0 0)
(0 -3.47163e-15 0 0 -8.80241e-15 0 0 0 0)
(0 1.7469e-15 0 -2.71051e-14 -6.16115e-15 0 0 0 0)
(2.71051e-14 1.5725e-14 0 -5.42101e-14 1.7136e-15 0 0 0 0)
(-2.71051e-14 2.04347e-14 0 -2.71051e-14 5.98235e-15 0 0 0 0)
(-2.71051e-14 -4.68612e-16 0 -2.71051e-14 4.31048e-15 0 0 0 0)
(0 -6.36762e-15 0 0 -6.5068e-15 0 0 0 0)
(0 -1.38672e-15 0 2.71051e-14 -1.83044e-15 0 0 0 0)
(0 -8.61799e-15 0 0 1.12942e-14 0 0 0 0)
(0 -1.71935e-14 0 0 2.14805e-14 0 0 0 0)
(-2.71051e-14 -1.19117e-14 0 0 8.29597e-15 0 0 0 0)
(-2.71051e-14 4.22589e-15 0 0 1.31497e-14 0 0 0 0)
(0 8.72124e-15 0 -2.71051e-14 8.16422e-15 0 0 0 0)
(0 9.23265e-15 0 5.42101e-14 2.68021e-15 0 0 0 0)
(-2.00577e-12 -8.91461e-12 0 -3.17129e-12 1.8571e-11 0 0 0 0)
(2.6834e-12 1.07864e-11 0 9.21572e-13 -4.10522e-12 0 0 0 0)
(-6.77626e-13 -2.34801e-12 0 -1.0842e-13 9.47848e-13 0 0 0 0)
(5.42101e-14 5.80073e-13 0 -2.71051e-14 -2.08378e-13 0 0 0 0)
(0 -1.11629e-13 0 -2.71051e-14 4.93936e-14 0 0 0 0)
(0 1.95803e-14 0 0 8.07215e-15 0 0 0 0)
(0 -2.81373e-14 0 0 1.68728e-14 0 0 0 0)
(-2.71051e-14 -1.5595e-14 0 -2.71051e-14 8.48269e-16 0 0 0 0)
(0 3.31935e-15 0 0 8.6209e-15 0 0 0 0)
(-2.71051e-14 1.37833e-14 0 -5.42101e-14 1.86961e-14 0 0 0 0)
(0 4.23456e-15 0 -1.0842e-13 -6.99883e-15 0 0 0 0)
(5.42101e-14 9.80991e-17 0 -2.71051e-14 -2.11403e-14 0 0 0 0)
(0 1.84253e-14 0 -5.42101e-14 -5.15491e-16 0 0 0 0)
(0 2.45789e-14 0 -8.13152e-14 1.02736e-14 0 0 0 0)
(0 1.17461e-14 0 -5.42101e-14 1.06161e-14 0 0 0 0)
(0 -1.4713e-14 0 -2.71051e-14 9.19976e-15 0 0 0 0)
(-2.71051e-14 -2.30305e-14 0 0 1.33501e-14 0 0 0 0)
(-2.71051e-14 -9.6283e-15 0 0 1.57634e-14 0 0 0 0)
(2.71051e-14 -2.53161e-15 0 0 1.12423e-14 0 0 0 0)
(-2.71051e-14 5.68815e-15 0 2.71051e-14 3.74525e-15 0 0 0 0)
(1.89735e-13 1.30424e-11 0 3.79471e-12 4.35659e-12 0 0 0 0)
(-1.0842e-13 -1.58752e-11 0 -1.21973e-12 -9.75393e-13 0 0 0 0)
(-8.13152e-14 3.48993e-12 0 -2.71051e-14 2.36801e-13 0 0 0 0)
(0 -8.01013e-13 0 -2.1684e-13 -5.42356e-14 0 0 0 0)
(2.71051e-14 2.01213e-13 0 -1.35525e-13 -6.28949e-15 0 0 0 0)
(2.71051e-14 -3.4793e-14 0 -1.35525e-13 -1.62199e-14 0 0 0 0)
(-2.71051e-14 -1.55453e-14 0 -1.0842e-13 -5.64748e-15 0 0 0 0)
(2.71051e-14 -1.17236e-14 0 -8.13152e-14 1.36596e-14 0 0 0 0)
(-2.71051e-14 1.95947e-14 0 -1.0842e-13 2.35898e-14 0 0 0 0)
(-2.71051e-14 1.05263e-16 0 -8.13152e-14 1.4941e-14 0 0 0 0)
(0 -1.94017e-14 0 0 1.18051e-15 0 0 0 0)
(0 6.01472e-15 0 -2.71051e-14 7.28148e-15 0 0 0 0)
(-5.42101e-14 2.50463e-14 0 -8.13152e-14 5.7799e-15 0 0 0 0)
(-2.71051e-14 9.74487e-15 0 -5.42101e-14 -1.39657e-14 0 0 0 0)
(0 -9.69183e-15 0 -5.42101e-14 -3.18825e-14 0 0 0 0)
(8.13152e-14 -1.44594e-14 0 -2.71051e-14 -4.36597e-14 0 0 0 0)
(2.71051e-14 -5.34806e-15 0 2.71051e-14 -1.27338e-14 0 0 0 0)
(0 2.11807e-15 0 0 1.37153e-14 0 0 0 0)
(-2.71051e-14 -3.29695e-15 0 0 2.48775e-14 0 0 0 0)
(0 -5.75492e-15 0 -2.71051e-14 6.44442e-15 0 0 0 0)
(5.42101e-13 -5.53341e-12 0 -1.40946e-12 -2.32609e-11 0 0 0 0)
(-1.21973e-12 6.66657e-12 0 3.79471e-13 5.06688e-12 0 0 0 0)
(4.06576e-13 -1.42686e-12 0 2.71051e-14 -1.19411e-12 0 0 0 0)
(5.42101e-14 3.36982e-13 0 1.0842e-13 2.53285e-13 0 0 0 0)
(2.71051e-14 -7.36134e-14 0 2.71051e-14 -7.75349e-14 0 0 0 0)
(5.42101e-14 2.02223e-14 0 0 -1.5983e-14 0 0 0 0)
(5.42101e-14 1.74218e-15 0 0 -2.28307e-14 0 0 0 0)
(-5.42101e-14 1.36422e-14 0 0 5.10007e-15 0 0 0 0)
(0 4.60067e-15 0 0 -1.21688e-14 0 0 0 0)
(5.42101e-14 -8.62596e-15 0 8.13152e-14 -2.80014e-14 0 0 0 0)
(2.71051e-14 -3.42492e-15 0 8.13152e-14 -1.14647e-14 0 0 0 0)
(-2.71051e-14 4.69749e-15 0 2.71051e-14 1.66723e-14 0 0 0 0)
(2.71051e-14 -2.82191e-15 0 1.0842e-13 -2.55606e-15 0 0 0 0)
(5.42101e-14 -1.30834e-14 0 8.13152e-14 -2.676e-14 0 0 0 0)
(5.42101e-14 -1.79479e-14 0 8.13152e-14 -3.1723e-14 0 0 0 0)
(0 4.43572e-15 0 5.42101e-14 -1.14835e-14 0 0 0 0)
(0 3.43445e-14 0 -5.42101e-14 7.10872e-15 0 0 0 0)
(-5.42101e-14 2.7983e-14 0 -8.13152e-14 2.02302e-14 0 0 0 0)
(0 -9.80247e-15 0 0 1.10385e-14 0 0 0 0)
(0 -2.56338e-14 0 0 -1.11152e-15 0 0 0 0)
(-7.58942e-13 -5.1516e-12 0 -3.52366e-13 2.25301e-11 0 0 0 0)
(1.35525e-12 6.19163e-12 0 3.25261e-13 -4.91456e-12 0 0 0 0)
(-4.33681e-13 -1.32367e-12 0 1.35525e-13 1.15877e-12 0 0 0 0)
(-5.42101e-14 3.15562e-13 0 1.35525e-13 -2.51224e-13 0 0 0 0)
(-5.42101e-14 -6.80547e-14 0 5.42101e-14 6.45887e-14 0 0 0 0)
(0 1.99112e-14 0 8.13152e-14 -1.30869e-14 0 0 0 0)
(-2.71051e-14 5.53773e-15 0 5.42101e-14 3.24027e-15 0 0 0 0)
(2.71051e-14 -1.06158e-15 0 0 -8.73974e-15 0 0 0 0)
(2.71051e-14 -1.35068e-14 0 5.42101e-14 -1.36481e-14 0 0 0 0)
(0 8.09291e-16 0 0 3.75912e-16 0 0 0 0)
(2.71051e-14 2.5272e-14 0 -2.71051e-14 3.62044e-15 0 0 0 0)
(0 1.49234e-14 0 -2.71051e-14 2.57911e-15 0 0 0 0)
(-2.71051e-14 -1.8386e-14 0 -2.71051e-14 3.16239e-15 0 0 0 0)
(-2.71051e-14 -1.94221e-14 0 -2.71051e-14 2.36005e-15 0 0 0 0)
(-2.71051e-14 5.58474e-15 0 -8.13152e-14 1.29153e-14 0 0 0 0)
(-8.13152e-14 2.43724e-14 0 -1.0842e-13 3.37599e-14 0 0 0 0)
(-2.71051e-14 2.63656e-14 0 -8.13152e-14 1.72365e-14 0 0 0 0)
(2.71051e-14 6.04781e-15 0 -2.71051e-14 -6.76795e-15 0 0 0 0)
(5.42101e-14 -2.46386e-14 0 0 -2.65724e-14 0 0 0 0)
(0 -1.56819e-14 0 2.71051e-14 -1.00317e-14 0 0 0 0)
(4.87891e-13 1.20822e-11 0 1.95156e-12 -1.00304e-11 0 0 0 0)
(-7.04731e-13 -1.47048e-11 0 -5.69206e-13 2.25992e-12 0 0 0 0)
(2.1684e-13 3.23648e-12 0 -2.71051e-14 -4.83286e-13 0 0 0 0)
(-8.13152e-14 -7.57194e-13 0 0 1.38059e-13 0 0 0 0)
(0 1.64524e-13 0 2.71051e-14 -2.12946e-15 0 0 0 0)
(0 -4.11261e-14 0 2.71051e-14 1.93831e-14 0 0 0 0)
(2.71051e-14 6.08934e-15 0 5.42101e-14 7.00944e-15 0 0 0 0)
(-2.71051e-14 -3.2461e-15 0 5.42101e-14 9.40277e-15 0 0 0 0)
(0 1.37163e-14 0 0 1.54334e-14 0 0 0 0)
(0 8.64254e-15 0 -5.42101e-14 2.01698e-14 0 0 0 0)
(-5.42101e-14 -1.22172e-15 0 -5.42101e-14 4.14714e-15 0 0 0 0)
(5.42101e-14 4.23943e-15 0 0 -2.23153e-14 0 0 0 0)
(0 -3.04097e-15 0 0 -7.9368e-15 0 0 0 0)
(0 -3.33058e-15 0 -5.42101e-14 1.1295e-14 0 0 0 0)
(0 1.3452e-14 0 0 1.80885e-14 0 0 0 0)
(0 8.75698e-15 0 -2.71051e-14 7.26453e-15 0 0 0 0)
(0 -6.18335e-15 0 0 -8.80716e-15 0 0 0 0)
(2.71051e-14 -1.58259e-14 0 0 -3.23606e-14 0 0 0 0)
(8.13152e-14 -1.30662e-14 0 0 -3.35569e-14 0 0 0 0)
(-2.71051e-14 1.09703e-14 0 0 -4.59647e-15 0 0 0 0)
(5.69206e-13 -1.29221e-11 0 -9.75782e-13 -6.3829e-12 0 0 0 0)
(-6.23416e-13 1.57388e-11 0 3.25261e-13 1.46055e-12 0 0 0 0)
(1.89735e-13 -3.44553e-12 0 8.13152e-14 -3.49132e-13 0 0 0 0)
(0 7.96719e-13 0 -2.71051e-14 6.98643e-14 0 0 0 0)
(2.71051e-14 -1.86731e-13 0 8.13152e-14 -2.24536e-14 0 0 0 0)
(-2.71051e-14 2.90501e-14 0 5.42101e-14 1.34371e-14 0 0 0 0)
(-2.71051e-14 -4.44257e-15 0 2.71051e-14 7.88974e-15 0 0 0 0)
(-2.71051e-14 7.36235e-15 0 8.13152e-14 2.23105e-14 0 0 0 0)
(-2.71051e-14 -2.73973e-15 0 8.13152e-14 1.70681e-14 0 0 0 0)
(0 -1.04769e-14 0 1.0842e-13 1.29982e-15 0 0 0 0)
(2.71051e-14 -1.72131e-14 0 1.0842e-13 -5.47605e-15 0 0 0 0)
(-2.71051e-14 2.83946e-15 0 5.42101e-14 3.25853e-15 0 0 0 0)
(0 1.52244e-14 0 5.42101e-14 1.86818e-14 0 0 0 0)
(-5.42101e-14 6.6032e-15 0 1.0842e-13 3.62553e-14 0 0 0 0)
(-5.42101e-14 1.55423e-15 0 5.42101e-14 1.8533e-14 0 0 0 0)
(0 -2.52333e-15 0 8.13152e-14 -4.09086e-15 0 0 0 0)
(0 -1.32596e-14 0 8.13152e-14 -3.00599e-16 0 0 0 0)
(5.42101e-14 -1.8702e-14 0 8.13152e-14 -5.22917e-15 0 0 0 0)
(0 3.12549e-15 0 2.71051e-14 -1.73252e-15 0 0 0 0)
(0 2.24715e-14 0 -2.71051e-14 5.51191e-15 0 0 0 0)
(-8.13152e-14 7.15981e-12 0 -1.21973e-12 1.79421e-11 0 0 0 0)
(2.71051e-13 -8.67102e-12 0 -2.71051e-14 -3.97115e-12 0 0 0 0)
(-1.6263e-13 1.84579e-12 0 -2.71051e-13 8.7622e-13 0 0 0 0)
(-8.13152e-14 -4.30516e-13 0 -1.0842e-13 -2.35933e-13 0 0 0 0)
(8.13152e-14 1.08096e-13 0 -1.0842e-13 1.34405e-14 0 0 0 0)
(0 -1.07828e-14 0 -1.35525e-13 -2.93808e-14 0 0 0 0)
(2.71051e-14 1.49627e-14 0 -1.35525e-13 -8.65385e-15 0 0 0 0)
(2.71051e-14 5.93227e-15 0 -5.42101e-14 -1.32093e-14 0 0 0 0)
(0 -7.29432e-15 0 -8.13152e-14 -1.84491e-15 0 0 0 0)
(0 -1.39016e-14 0 -2.71051e-14 1.6791e-15 0 0 0 0)
(-2.71051e-14 7.36994e-16 0 -5.42101e-14 1.46736e-14 0 0 0 0)
(0 2.83973e-14 0 -1.35525e-13 2.26198e-14 0 0 0 0)
(0 2.99558e-14 0 -1.0842e-13 1.15253e-14 0 0 0 0)
(0 -3.47937e-15 0 -1.0842e-13 9.19722e-15 0 0 0 0)
(0 -2.68942e-14 0 -5.42101e-14 -3.34945e-16 0 0 0 0)
(0 -1.00766e-14 0 0 -4.14668e-15 0 0 0 0)
(0 -7.32166e-15 0 2.71051e-14 -3.78961e-16 0 0 0 0)
(-2.71051e-14 -1.72578e-14 0 2.71051e-14 1.29652e-14 0 0 0 0)
(-2.71051e-14 -2.32512e-15 0 0 2.20775e-14 0 0 0 0)
(0 7.19089e-15 0 0 8.89392e-15 0 0 0 0)
(-7.04731e-13 1.04882e-12 0 8.40257e-13 -1.93649e-11 0 0 0 0)
(3.52366e-13 -1.32708e-12 0 -1.35525e-13 4.16021e-12 0 0 0 0)
(1.35525e-13 2.89683e-13 0 8.13152e-14 -9.75203e-13 0 0 0 0)
(1.35525e-13 -6.60605e-14 0 8.13152e-14 2.08065e-13 0 0 0 0)
(-5.42101e-14 1.98214e-14 0 2.71051e-14 -5.25979e-14 0 0 0 0)
(5.42101e-14 6.95577e-15 0 0 -2.30683e-15 0 0 0 0)
(0 1.17289e-14 0 5.42101e-14 -1.2803e-14 0 0 0 0)
(2.71051e-14 1.41713e-14 0 -2.71051e-14 -1.53481e-14 0 0 0 0)
(-2.71051e-14 1.21487e-14 0 0 -3.32691e-15 0 0 0 0)
(2.71051e-14 6.04159e-15 0 -2.71051e-14 4.84293e-15 0 0 0 0)
(-8.13152e-14 3.72756e-15 0 0 2.28005e-14 0 0 0 0)
(-5.42101e-14 -3.08817e-16 0 2.71051e-14 1.50025e-14 0 0 0 0)
(5.42101e-14 1.8018e-15 0 0 -1.78702e-14 0 0 0 0)
(5.42101e-14 -5.25708e-15 0 0 -4.56735e-14 0 0 0 0)
(0 -1.17897e-14 0 5.42101e-14 -3.61976e-14 0 0 0 0)
(2.71051e-14 -2.56734e-15 0 0 -1.45048e-14 0 0 0 0)
(5.42101e-14 3.85235e-15 0 -2.71051e-14 -7.30567e-15 0 0 0 0)
(2.71051e-14 3.75447e-15 0 -2.71051e-14 2.40587e-15 0 0 0 0)
(-2.71051e-14 -9.45818e-16 0 -2.71051e-14 1.06724e-14 0 0 0 0)
(0 -8.49985e-15 0 0 3.77458e-15 0 0 0 0)
(6.77626e-13 -8.04491e-12 0 5.42101e-14 1.40358e-11 0 0 0 0)
(-4.87891e-13 9.7187e-12 0 2.71051e-13 -3.01773e-12 0 0 0 0)
(0 -2.10636e-12 0 2.43945e-13 7.15556e-13 0 0 0 0)
(-1.0842e-13 4.92089e-13 0 5.42101e-14 -1.49391e-13 0 0 0 0)
(0 -1.02275e-13 0 5.42101e-14 4.24151e-14 0 0 0 0)
(-2.71051e-14 2.90121e-14 0 1.0842e-13 2.6176e-15 0 0 0 0)
(0 1.9215e-15 0 5.42101e-14 1.18047e-14 0 0 0 0)
(0 1.54083e-14 0 5.42101e-14 1.03585e-14 0 0 0 0)
(0 1.28967e-14 0 2.71051e-14 4.05881e-15 0 0 0 0)
(0 1.22258e-14 0 5.42101e-14 2.87925e-15 0 0 0 0)
(2.71051e-14 1.08966e-14 0 5.42101e-14 2.49966e-15 0 0 0 0)
(0 -1.22734e-14 0 8.13152e-14 1.00884e-14 0 0 0 0)
(-2.71051e-14 -3.07202e-14 0 1.0842e-13 1.1565e-14 0 0 0 0)
(0 -2.18068e-14 0 1.0842e-13 -3.05544e-15 0 0 0 0)
(0 4.27447e-15 0 5.42101e-14 1.59973e-15 0 0 0 0)
(0 1.88153e-14 0 5.42101e-14 1.19714e-14 0 0 0 0)
(-5.42101e-14 9.58904e-15 0 2.71051e-14 1.39249e-14 0 0 0 0)
(0 7.20221e-16 0 0 3.85812e-15 0 0 0 0)
(0 -9.56411e-16 0 0 1.31559e-15 0 0 0 0)
(0 -7.25606e-15 0 0 6.35839e-16 0 0 0 0)
(-4.06576e-13 1.20669e-11 0 1.40946e-12 -9.92424e-13 0 0 0 0)
(5.42101e-13 -1.46474e-11 0 -5.69206e-13 2.71982e-13 0 0 0 0)
(-8.13152e-14 3.15802e-12 0 -1.35525e-13 -4.54137e-14 0 0 0 0)
(0 -7.39201e-13 0 -5.42101e-14 2.69963e-14 0 0 0 0)
(-2.71051e-14 1.7183e-13 0 -1.35525e-13 -7.11589e-16 0 0 0 0)
(2.71051e-14 -2.36546e-14 0 -5.42101e-14 9.23817e-15 0 0 0 0)
(0 1.94699e-14 0 -5.42101e-14 1.51636e-14 0 0 0 0)
(-2.71051e-14 6.42536e-15 0 -5.42101e-14 8.14668e-15 0 0 0 0)
(-2.71051e-14 4.66942e-15 0 -8.13152e-14 1.79847e-15 0 0 0 0)
(2.71051e-14 4.48243e-15 0 -5.42101e-14 3.05157e-15 0 0 0 0)
(-2.71051e-14 1.09367e-14 0 -1.0842e-13 -6.77119e-15 0 0 0 0)
(0 8.75658e-15 0 -8.13152e-14 -1.64486e-14 0 0 0 0)
(2.71051e-14 -1.13421e-14 0 -5.42101e-14 -3.24201e-15 0 0 0 0)
(2.71051e-14 -1.52224e-14 0 -5.42101e-14 1.16474e-14 0 0 0 0)
(-2.71051e-14 3.23719e-15 0 -5.42101e-14 2.64571e-14 0 0 0 0)
(-2.71051e-14 9.75786e-15 0 -5.42101e-14 1.1577e-14 0 0 0 0)
(0 -4.26095e-15 0 -2.71051e-14 -1.11183e-14 0 0 0 0)
(2.71051e-14 -8.85488e-15 0 0 -1.15318e-14 0 0 0 0)
(-2.71051e-14 -4.1681e-15 0 0 1.0347e-15 0 0 0 0)
(0 -1.04513e-14 0 0 1.42019e-15 0 0 0 0)
(1.46367e-12 -8.76535e-12 0 -2.35814e-12 -1.73291e-11 0 0 0 0)
(-1.95156e-12 1.06657e-11 0 6.23416e-13 3.7744e-12 0 0 0 0)
(5.14996e-13 -2.35134e-12 0 -5.42101e-14 -8.52531e-13 0 0 0 0)
(-1.0842e-13 5.36791e-13 0 0 2.12384e-13 0 0 0 0)
(0 -1.20033e-13 0 -2.71051e-14 -4.1238e-14 0 0 0 0)
(0 4.48873e-14 0 -8.13152e-14 5.70605e-15 0 0 0 0)
(0 8.30007e-16 0 -5.42101e-14 -2.64622e-15 0 0 0 0)
(0 2.04317e-15 0 0 2.48702e-15 0 0 0 0)
(2.71051e-14 7.80158e-15 0 0 5.01787e-16 0 0 0 0)
(0 3.65612e-15 0 -5.42101e-14 -2.15605e-15 0 0 0 0)
(0 -8.60357e-15 0 5.42101e-14 -4.08358e-15 0 0 0 0)
(0 -8.74417e-15 0 5.42101e-14 -8.3063e-15 0 0 0 0)
(0 -2.62426e-15 0 0 -2.98551e-15 0 0 0 0)
(0 7.89228e-15 0 0 3.52723e-15 0 0 0 0)
(-2.71051e-14 4.20413e-15 0 -8.13152e-14 4.0384e-16 0 0 0 0)
(2.71051e-14 -1.87601e-14 0 0 -2.10161e-14 0 0 0 0)
(5.42101e-14 -1.35198e-14 0 0 -3.38894e-14 0 0 0 0)
(0 1.28733e-14 0 2.71051e-14 -1.06071e-14 0 0 0 0)
(0 1.19956e-14 0 0 -2.22067e-15 0 0 0 0)
(0 -9.71094e-15 0 0 -5.52757e-16 0 0 0 0)
(-2.1413e-12 -1.48778e-12 0 -2.71051e-12 2.37946e-11 0 0 0 0)
(2.81893e-12 1.82921e-12 0 5.96311e-13 -5.19481e-12 0 0 0 0)
(-7.58942e-13 -4.03994e-13 0 -2.71051e-13 1.2201e-12 0 0 0 0)
(8.13152e-14 7.20921e-14 0 0 -2.55462e-13 0 0 0 0)
(-8.13152e-14 -3.48488e-14 0 -5.42101e-14 7.73991e-14 0 0 0 0)
(2.71051e-14 1.49372e-14 0 -5.42101e-14 -9.12558e-15 0 0 0 0)
(5.42101e-14 1.62508e-14 0 -2.71051e-14 3.05668e-15 0 0 0 0)
(-5.42101e-14 9.57337e-15 0 -8.13152e-14 1.3589e-14 0 0 0 0)
(0 2.63436e-17 0 -8.13152e-14 -5.67402e-15 0 0 0 0)
(5.42101e-14 -1.02932e-16 0 -2.71051e-14 -2.51256e-14 0 0 0 0)
(5.42101e-14 4.78649e-15 0 -5.42101e-14 -1.95103e-14 0 0 0 0)
(0 9.85464e-15 0 -5.42101e-14 -5.95365e-15 0 0 0 0)
(0 4.91455e-16 0 -5.42101e-14 -8.62899e-15 0 0 0 0)
(-5.42101e-14 -1.1833e-14 0 0 -4.10051e-15 0 0 0 0)
(0 -2.13061e-14 0 8.13152e-14 -4.68283e-15 0 0 0 0)
(2.71051e-14 -2.45354e-14 0 2.71051e-14 -3.76083e-15 0 0 0 0)
(0 6.14804e-15 0 0 7.35674e-15 0 0 0 0)
(-2.71051e-14 2.28139e-14 0 -8.13152e-14 1.23704e-14 0 0 0 0)
(0 5.88625e-15 0 0 -8.4192e-15 0 0 0 0)
(0 -7.67786e-15 0 0 -7.07783e-15 0 0 0 0)
(-6.23416e-13 9.83442e-12 0 5.85469e-12 -4.15115e-12 0 0 0 0)
(4.87891e-13 -1.19088e-11 0 -1.49078e-12 8.17568e-13 0 0 0 0)
(-8.13152e-14 2.588e-12 0 1.89735e-13 -2.19449e-13 0 0 0 0)
(8.13152e-14 -6.05914e-13 0 -8.13152e-14 4.49769e-14 0 0 0 0)
(-5.42101e-14 1.26303e-13 0 5.42101e-14 2.04464e-14 0 0 0 0)
(0 -2.94551e-14 0 0 1.62392e-14 0 0 0 0)
(0 2.35446e-14 0 -5.42101e-14 -4.57638e-15 0 0 0 0)
(0 -6.68753e-15 0 0 -1.2287e-14 0 0 0 0)
(-2.71051e-14 -3.0913e-14 0 5.42101e-14 -1.61918e-14 0 0 0 0)
(2.71051e-14 -1.01802e-14 0 0 -1.65387e-14 0 0 0 0)
(0 1.05684e-14 0 -2.71051e-14 -1.72619e-14 0 0 0 0)
(0 2.13715e-15 0 -8.13152e-14 -2.95531e-14 0 0 0 0)
(1.0842e-13 -7.71115e-16 0 0 -4.75325e-14 0 0 0 0)
(8.13152e-14 1.18384e-14 0 -5.42101e-14 -3.3391e-14 0 0 0 0)
(2.71051e-14 4.54381e-15 0 2.71051e-14 -1.75832e-14 0 0 0 0)
(-2.71051e-14 -6.72057e-15 0 -2.71051e-14 7.27699e-15 0 0 0 0)
(-8.13152e-14 2.61141e-15 0 0 2.68643e-14 0 0 0 0)
(0 -2.90268e-15 0 0 5.22247e-15 0 0 0 0)
(8.13152e-14 -7.45264e-15 0 0 -1.00711e-14 0 0 0 0)
(0 5.7861e-15 0 2.71051e-14 -5.13053e-15 0 0 0 0)
(2.22261e-12 -4.82136e-12 0 -6.23416e-13 -2.0123e-11 0 0 0 0)
(-2.90024e-12 5.76092e-12 0 4.06576e-13 4.30911e-12 0 0 0 0)
(6.77626e-13 -1.17658e-12 0 1.89735e-13 -1.02919e-12 0 0 0 0)
(-5.42101e-14 3.11987e-13 0 8.13152e-14 2.15263e-13 0 0 0 0)
(0 -6.35865e-14 0 1.6263e-13 -4.93727e-14 0 0 0 0)
(-2.71051e-14 -1.00856e-14 0 1.89735e-13 2.99663e-15 0 0 0 0)
(2.71051e-14 -1.22753e-14 0 1.6263e-13 -2.52745e-14 0 0 0 0)
(1.0842e-13 -2.04203e-15 0 1.6263e-13 -3.18771e-14 0 0 0 0)
(0 -4.22537e-15 0 1.35525e-13 -4.40414e-15 0 0 0 0)
(-2.71051e-14 -1.17309e-15 0 1.35525e-13 1.5074e-14 0 0 0 0)
(-2.71051e-14 -8.22795e-15 0 1.35525e-13 9.837e-15 0 0 0 0)
(0 -2.04159e-14 0 1.89735e-13 1.93977e-15 0 0 0 0)
(0 -3.34639e-15 0 1.0842e-13 4.46017e-15 0 0 0 0)
(-5.42101e-14 1.81163e-14 0 8.13152e-14 -6.10788e-16 0 0 0 0)
(5.42101e-14 1.93618e-14 0 0 -2.16633e-14 0 0 0 0)
(2.71051e-14 1.9912e-14 0 0 -1.34722e-14 0 0 0 0)
(0 4.09352e-15 0 0 8.63686e-16 0 0 0 0)
(-2.71051e-14 -1.41215e-14 0 5.42101e-14 -2.05048e-15 0 0 0 0)
(2.71051e-14 -4.46675e-15 0 0 4.669e-15 0 0 0 0)
(-2.71051e-14 7.52375e-15 0 0 4.61566e-15 0 0 0 0)
(-8.40257e-13 -5.97942e-12 0 -1.68051e-12 1.36382e-11 0 0 0 0)
(1.30104e-12 7.185e-12 0 2.98156e-13 -2.83741e-12 0 0 0 0)
(-3.52366e-13 -1.50585e-12 0 -1.0842e-13 6.92277e-13 0 0 0 0)
(2.71051e-14 3.73907e-13 0 0 -1.54983e-13 0 0 0 0)
(5.42101e-14 -8.59635e-14 0 -8.13152e-14 6.38357e-15 0 0 0 0)
(-2.71051e-14 -5.35698e-15 0 -5.42101e-14 -5.43302e-15 0 0 0 0)
(-2.71051e-14 -1.13291e-14 0 -2.71051e-14 2.18262e-14 0 0 0 0)
(-2.71051e-14 1.41829e-14 0 -8.13152e-14 1.81714e-14 0 0 0 0)
(-2.71051e-14 1.60381e-14 0 -5.42101e-14 9.68534e-15 0 0 0 0)
(2.71051e-14 4.06097e-15 0 -5.42101e-14 6.35871e-15 0 0 0 0)
(2.71051e-14 -2.56588e-15 0 -5.42101e-14 6.79746e-15 0 0 0 0)
(-5.42101e-14 -3.23968e-15 0 -5.42101e-14 1.71525e-14 0 0 0 0)
(-2.71051e-14 -3.32167e-15 0 -5.42101e-14 3.04531e-14 0 0 0 0)
(0 -1.42851e-14 0 -2.71051e-14 2.38206e-14 0 0 0 0)
(-5.42101e-14 -8.31758e-15 0 -2.71051e-14 2.66218e-14 0 0 0 0)
(0 1.58065e-14 0 0 1.27764e-14 0 0 0 0)
(-5.42101e-14 1.40331e-14 0 0 -9.09664e-15 0 0 0 0)
(5.42101e-14 9.02633e-16 0 0 -5.35026e-15 0 0 0 0)
(2.71051e-14 -7.86502e-16 0 0 4.12219e-15 0 0 0 0)
(-2.71051e-14 -3.49856e-15 0 -2.71051e-14 -9.70061e-17 0 0 0 0)
)
;

boundaryField
{
    movingWall
    {
        type            extrapolatedCalculated;
        value           nonuniform List<tensor> 
20
(
(-8.40257e-13 -5.97942e-12 0 5.06262e-12 3.02778e-11 0 0 0 0)
(1.30104e-12 7.185e-12 0 -1.64313e-12 -6.36012e-12 0 0 0 0)
(-3.52366e-13 -1.50585e-12 0 -2.22045e-13 1.5378e-12 0 0 0 0)
(2.71051e-14 3.73907e-13 0 -1.77636e-13 -3.36739e-13 0 0 0 0)
(5.42101e-14 -8.59635e-14 0 -3.10862e-13 4.21773e-14 0 0 0 0)
(-2.71051e-14 -5.35698e-15 0 -3.55271e-13 7.11494e-15 0 0 0 0)
(-2.71051e-14 -1.13291e-14 0 -2.66454e-13 6.36052e-14 0 0 0 0)
(-2.71051e-14 1.41829e-14 0 -3.10862e-13 5.24313e-14 0 0 0 0)
(-2.71051e-14 1.60381e-14 0 -1.77636e-13 6.87379e-15 0 0 0 0)
(2.71051e-14 4.06097e-15 0 -1.77636e-13 -1.17209e-14 0 0 0 0)
(2.71051e-14 -2.56588e-15 0 -2.66454e-13 -9.3701e-15 0 0 0 0)
(-5.42101e-14 -3.23968e-15 0 -2.22045e-13 -1.45741e-15 0 0 0 0)
(-2.71051e-14 -3.32167e-15 0 -1.33227e-13 3.58862e-15 0 0 0 0)
(0 -1.42851e-14 0 -1.33227e-13 1.18293e-14 0 0 0 0)
(-5.42101e-14 -8.31758e-15 0 -4.44089e-14 6.07289e-14 0 0 0 0)
(0 1.58065e-14 0 0 4.50996e-14 0 0 0 0)
(-5.42101e-14 1.40331e-14 0 0 -2.49693e-15 0 0 0 0)
(5.42101e-14 9.02633e-16 0 8.88178e-14 -1.10328e-14 0 0 0 0)
(2.71051e-14 -7.86502e-16 0 0 -6.10746e-15 0 0 0 0)
(-2.71051e-14 -3.49856e-15 0 -4.44089e-14 -7.8868e-15 0 0 0 0)
)
;
    }
    fixedWalls
    {
        type            extrapolatedCalculated;
        value           nonuniform List<tensor> 
60
(
(-7.63833e-12 6.49587e-11 0 1.57209e-12 1.61198e-11 0 0 0 0)
(1.39888e-11 -4.7944e-13 0 2.98156e-13 -3.04856e-11 0 0 0 0)
(-6.57252e-12 -5.69839e-11 0 -5.3397e-12 1.30938e-11 0 0 0 0)
(-7.28306e-12 5.18957e-11 0 4.96022e-12 1.23999e-11 0 0 0 0)
(1.32783e-11 -7.3843e-12 0 -8.94467e-13 -2.43615e-11 0 0 0 0)
(-1.08358e-11 -4.55502e-11 0 -3.17129e-12 1.8571e-11 0 0 0 0)
(5.32907e-13 6.68998e-11 0 3.79471e-12 4.35659e-12 0 0 0 0)
(4.30767e-12 -2.81238e-11 0 -1.40946e-12 -2.32609e-11 0 0 0 0)
(-5.06262e-12 -2.61439e-11 0 -3.52366e-13 2.25301e-11 0 0 0 0)
(2.93099e-12 6.19967e-11 0 1.95156e-12 -1.00304e-11 0 0 0 0)
(2.66454e-12 -6.62656e-11 0 -9.75782e-13 -6.3829e-12 0 0 0 0)
(-8.88178e-13 3.64651e-11 0 -1.21973e-12 1.79421e-11 0 0 0 0)
(-2.39808e-12 5.50271e-12 0 8.40257e-13 -1.93649e-11 0 0 0 0)
(2.62013e-12 -4.09946e-11 0 5.42101e-14 1.40358e-11 0 0 0 0)
(-2.13163e-12 6.16461e-11 0 1.40946e-12 -9.92424e-13 0 0 0 0)
(8.21565e-12 -4.49643e-11 0 -2.35814e-12 -1.73291e-11 0 0 0 0)
(-1.15463e-11 -7.67037e-12 0 -2.71051e-12 2.37946e-11 0 0 0 0)
(-2.57572e-12 5.0214e-11 0 5.85469e-12 -4.15115e-12 0 0 0 0)
(1.18128e-11 -2.4275e-11 0 -6.23416e-13 -2.0123e-11 0 0 0 0)
(-5.06262e-12 -3.02778e-11 0 -1.68051e-12 1.36382e-11 0 0 0 0)
(-4.44089e-14 -1.24118e-14 0 0 7.39741e-15 0 0 0 0)
(0 -1.71779e-14 0 0 -4.27729e-15 0 0 0 0)
(0 4.69737e-15 0 0 -9.66021e-15 0 0 0 0)
(8.88178e-14 2.1463e-14 0 -5.42101e-14 -2.58409e-15 0 0 0 0)
(0 1.50337e-14 0 5.42101e-14 2.68021e-15 0 0 0 0)
(-4.44089e-14 1.07421e-14 0 2.71051e-14 3.74525e-15 0 0 0 0)
(0 5.27288e-17 0 -2.71051e-14 6.44442e-15 0 0 0 0)
(0 -1.50355e-14 0 0 -1.11152e-15 0 0 0 0)
(-4.44089e-14 4.49881e-15 0 2.71051e-14 -1.00317e-14 0 0 0 0)
(-4.44089e-14 2.50912e-14 0 0 -4.59647e-15 0 0 0 0)
(-4.44089e-14 2.28847e-14 0 -2.71051e-14 5.51191e-15 0 0 0 0)
(0 3.04355e-15 0 0 8.89392e-15 0 0 0 0)
(0 -1.2691e-14 0 0 3.77458e-15 0 0 0 0)
(0 -1.20548e-14 0 0 6.35839e-16 0 0 0 0)
(0 -1.52344e-14 0 0 1.42019e-15 0 0 0 0)
(0 -1.77355e-14 0 0 -5.52757e-16 0 0 0 0)
(0 -1.30233e-14 0 0 -7.07783e-15 0 0 0 0)
(0 1.05758e-14 0 2.71051e-14 -5.13053e-15 0 0 0 0)
(-4.44089e-14 7.49877e-15 0 0 4.61566e-15 0 0 0 0)
(-4.44089e-14 -7.8868e-15 0 -2.71051e-14 -9.70061e-17 0 0 0 0)
(-1.32815e-12 1.26716e-11 0 -7.63833e-12 6.49587e-11 0 0 0 0)
(1.89735e-12 -1.53979e-11 0 2.30926e-12 -1.42722e-11 0 0 0 0)
(-5.14996e-13 3.39405e-12 0 0 3.36714e-12 0 0 0 0)
(5.42101e-14 -8.00902e-13 0 2.22045e-13 -6.95945e-13 0 0 0 0)
(-2.71051e-14 1.63331e-13 0 2.22045e-13 1.63527e-13 0 0 0 0)
(0 -3.81637e-14 0 1.77636e-13 -4.26198e-14 0 0 0 0)
(0 1.22322e-14 0 2.22045e-13 1.08721e-14 0 0 0 0)
(-2.71051e-14 1.9799e-15 0 1.77636e-13 6.30904e-15 0 0 0 0)
(-2.71051e-14 8.20529e-15 0 4.44089e-14 1.87917e-14 0 0 0 0)
(0 2.91581e-15 0 8.88178e-14 3.91302e-14 0 0 0 0)
(-2.71051e-14 -7.79185e-15 0 0 3.04549e-14 0 0 0 0)
(0 -8.47176e-15 0 -8.88178e-14 7.96281e-15 0 0 0 0)
(2.71051e-14 4.59964e-15 0 8.88178e-14 -3.43208e-15 0 0 0 0)
(-2.71051e-14 9.00229e-15 0 0 2.63614e-14 0 0 0 0)
(0 -6.50441e-15 0 0 3.25771e-14 0 0 0 0)
(0 -9.84542e-15 0 0 3.43741e-16 0 0 0 0)
(2.71051e-14 3.58233e-15 0 0 -6.80458e-15 0 0 0 0)
(2.71051e-14 9.67531e-15 0 1.33227e-13 1.4673e-14 0 0 0 0)
(-2.71051e-14 -5.65313e-16 0 0 3.18967e-14 0 0 0 0)
(-2.71051e-14 -1.10771e-14 0 4.44089e-14 1.24118e-14 0 0 0 0)
)
;
    }
    frontAndBack
    {
        type            empty;
    }
}


// ************************************************************************* //
