/*--------------------------------*- C++ -*----------------------------------*\
| =========                 |                                                 |
| \\      /  F ield         | OpenFOAM: The Open Source CFD Toolbox           |
|  \\    /   O peration     | Version:  2506                                  |
|   \\  /    A nd           | Website:  www.openfoam.com                      |
|    \\/     M anipulation  |                                                 |
\*---------------------------------------------------------------------------*/
FoamFile
{
    version     2.0;
    format      ascii;
    arch        "LSB;label=32;scalar=64";
    class       volScalarField;
    location    "7.5";
    object      initialResidual:epsilon;
}
// * * * * * * * * * * * * * * * * * * * * * * * * * * * * * * * * * * * * * //

dimensions      [0 0 0 0 0 0 0];

internalField   nonuniform List<scalar> 
400
(
0
0
0
0
0
0
0
0
0
0
0
0
0
0
0
0
0
0
0
0
0
-2.33006e-13
-2.31352e-13
-2.32001e-13
-2.32542e-13
-2.3245e-13
-2.32997e-13
-2.32879e-13
-2.33428e-13
-2.33353e-13
-2.33821e-13
-2.33864e-13
-2.34201e-13
-2.34383e-13
-2.34595e-13
-2.34894e-13
-2.35014e-13
-2.35407e-13
-4.706e-13
0
0
-2.54916e-13
-2.52852e-13
-2.53663e-13
-2.54313e-13
-2.54198e-13
-2.54841e-13
-2.54656e-13
-2.55338e-13
-2.55208e-13
-2.55774e-13
-2.55797e-13
-2.56191e-13
-2.56393e-13
-2.56623e-13
-2.56977e-13
-2.57085e-13
-2.57562e-13
-5.15351e-13
0
0
-2.76448e-13
-2.74194e-13
-2.75082e-13
-2.75793e-13
-2.75704e-13
-2.76384e-13
-2.76163e-13
-2.7694e-13
-2.76789e-13
-2.77415e-13
-2.77441e-13
-2.77876e-13
-2.781e-13
-2.78354e-13
-2.78745e-13
-2.78864e-13
-2.79391e-13
-5.59014e-13
0
0
-2.92814e-13
-2.90444e-13
-2.91383e-13
-2.92142e-13
-2.92046e-13
-2.92776e-13
-2.92546e-13
-2.93374e-13
-2.93216e-13
-2.93888e-13
-2.93916e-13
-2.94385e-13
-2.94624e-13
-2.949e-13
-2.95317e-13
-2.9545e-13
-2.96012e-13
-5.92271e-13
0
0
-3.03595e-13
-3.01132e-13
-3.02114e-13
-3.02907e-13
-3.028e-13
-3.0357e-13
-3.03335e-13
-3.04195e-13
-3.04034e-13
-3.04734e-13
-3.04766e-13
-3.05257e-13
-3.05507e-13
-3.05798e-13
-3.06233e-13
-3.06375e-13
-3.0696e-13
-6.14181e-13
0
0
-3.10156e-13
-3.07636e-13
-3.08641e-13
-3.09457e-13
-3.09342e-13
-3.10136e-13
-3.09902e-13
-3.10776e-13
-3.10617e-13
-3.11334e-13
-3.11369e-13
-3.11872e-13
-3.1213e-13
-3.12429e-13
-3.12876e-13
-3.13023e-13
-3.13625e-13
-6.27518e-13
0
0
-3.14103e-13
-3.11524e-13
-3.12554e-13
-3.13386e-13
-3.13262e-13
-3.14075e-13
-3.1384e-13
-3.14725e-13
-3.14564e-13
-3.15293e-13
-3.15327e-13
-3.1584e-13
-3.16102e-13
-3.16407e-13
-3.16861e-13
-3.1701e-13
-3.17621e-13
-6.35518e-13
0
0
-3.16592e-13
-3.14013e-13
-3.15047e-13
-3.15882e-13
-3.15758e-13
-3.16579e-13
-3.16344e-13
-3.17235e-13
-3.17075e-13
-3.17809e-13
-3.17847e-13
-3.18362e-13
-3.18629e-13
-3.18935e-13
-3.19394e-13
-3.19546e-13
-3.20163e-13
-6.40605e-13
0
0
-3.184e-13
-3.15804e-13
-3.16843e-13
-3.17687e-13
-3.17556e-13
-3.18387e-13
-3.18155e-13
-3.19047e-13
-3.18889e-13
-3.19627e-13
-3.19665e-13
-3.20185e-13
-3.20452e-13
-3.20763e-13
-3.21224e-13
-3.21378e-13
-3.21998e-13
-6.44279e-13
0
0
-3.19925e-13
-3.17315e-13
-3.18362e-13
-3.1921e-13
-3.19078e-13
-3.19914e-13
-3.19682e-13
-3.20578e-13
-3.20419e-13
-3.21162e-13
-3.212e-13
-3.21722e-13
-3.21993e-13
-3.22304e-13
-3.2277e-13
-3.22923e-13
-3.23548e-13
-6.47379e-13
0
0
-3.21389e-13
-3.18776e-13
-3.19825e-13
-3.20677e-13
-3.2054e-13
-3.21384e-13
-3.21153e-13
-3.22051e-13
-3.21892e-13
-3.2264e-13
-3.22677e-13
-3.23205e-13
-3.23474e-13
-3.23789e-13
-3.24256e-13
-3.24412e-13
-3.25039e-13
-6.50364e-13
0
0
-3.2295e-13
-3.2029e-13
-3.21355e-13
-3.22216e-13
-3.22074e-13
-3.22926e-13
-3.22696e-13
-3.23595e-13
-3.23438e-13
-3.24188e-13
-3.24227e-13
-3.24756e-13
-3.25029e-13
-3.25345e-13
-3.25815e-13
-3.25972e-13
-3.26602e-13
-6.53492e-13
0
0
-3.24618e-13
-3.21981e-13
-3.23042e-13
-3.23904e-13
-3.23758e-13
-3.24618e-13
-3.2439e-13
-3.25291e-13
-3.25135e-13
-3.25889e-13
-3.25929e-13
-3.26462e-13
-3.26735e-13
-3.27054e-13
-3.27526e-13
-3.27685e-13
-3.28319e-13
-6.56927e-13
0
0
-3.26507e-13
-3.2386e-13
-3.24924e-13
-3.25793e-13
-3.25645e-13
-3.26512e-13
-3.26283e-13
-3.2719e-13
-3.27033e-13
-3.27792e-13
-3.27833e-13
-3.2837e-13
-3.28644e-13
-3.28967e-13
-3.29441e-13
-3.29603e-13
-3.30239e-13
-6.60771e-13
0
0
-3.28627e-13
-3.25932e-13
-3.27014e-13
-3.27891e-13
-3.27743e-13
-3.28616e-13
-3.28387e-13
-3.29299e-13
-3.29141e-13
-3.29906e-13
-3.29948e-13
-3.30487e-13
-3.30767e-13
-3.31089e-13
-3.3157e-13
-3.31731e-13
-3.32374e-13
-6.65039e-13
0
0
-3.30853e-13
-3.28159e-13
-3.29243e-13
-3.30125e-13
-3.29977e-13
-3.30856e-13
-3.30626e-13
-3.31545e-13
-3.31387e-13
-3.32157e-13
-3.322e-13
-3.32744e-13
-3.33025e-13
-3.33351e-13
-3.33835e-13
-3.33998e-13
-3.34646e-13
-6.69585e-13
0
0
-3.33015e-13
-3.30331e-13
-3.31417e-13
-3.32299e-13
-3.32135e-13
-3.3303e-13
-3.32818e-13
-3.33719e-13
-3.33575e-13
-3.34341e-13
-3.34389e-13
-3.34937e-13
-3.3522e-13
-3.3555e-13
-3.36035e-13
-3.36203e-13
-3.36851e-13
-6.74002e-13
0
0
-3.35931e-13
-3.32754e-13
-3.33993e-13
-3.34947e-13
-3.34697e-13
-3.3567e-13
-3.35361e-13
-3.36345e-13
-3.36113e-13
-3.36942e-13
-3.36938e-13
-3.37507e-13
-3.37782e-13
-3.38095e-13
-3.38612e-13
-3.3873e-13
-3.39448e-13
-6.78372e-13
0
0
0
0
0
0
0
0
0
0
0
0
0
0
0
0
0
0
0
0
0
)
;

boundaryField
{
    movingWall
    {
        type            zeroGradient;
    }
    fixedWalls
    {
        type            zeroGradient;
    }
    frontAndBack
    {
        type            empty;
    }
}


// ************************************************************************* //
