/*--------------------------------*- C++ -*----------------------------------*\
| =========                 |                                                 |
| \\      /  F ield         | OpenFOAM: The Open Source CFD Toolbox           |
|  \\    /   O peration     | Version:  2506                                  |
|   \\  /    A nd           | Website:  www.openfoam.com                      |
|    \\/     M anipulation  |                                                 |
\*---------------------------------------------------------------------------*/
FoamFile
{
    version     2.0;
    format      ascii;
    arch        "LSB;label=32;scalar=64";
    class       volScalarField;
    location    "7.5";
    object      initialResidual:p;
}
// * * * * * * * * * * * * * * * * * * * * * * * * * * * * * * * * * * * * * //

dimensions      [0 0 0 0 0 0 0];

internalField   nonuniform List<scalar> 
400
(
-1.15197e-19
5.01288e-20
-6.03365e-21
-5.4855e-22
-2.22676e-21
3.797e-21
-6.46797e-21
6.36064e-21
-3.79995e-21
-2.59089e-21
-9.47058e-22
3.00945e-21
-4.74861e-22
1.79191e-21
-6.53548e-22
-7.09296e-22
2.06132e-20
-9.48139e-21
-8.78248e-21
-6.77625e-21
-2.71046e-20
2.04273e-20
-2.26602e-20
1.08004e-20
-5.06784e-21
-5.07026e-21
7.79156e-21
-4.81477e-21
-7.43387e-23
4.48654e-20
-1.58622e-20
8.97427e-21
4.66147e-22
-1.41947e-20
1.1497e-20
-1.05462e-20
-4.16177e-21
2.12304e-21
-4.17172e-21
3.03012e-26
6.77595e-21
1.51907e-20
-1.78259e-20
-1.40403e-20
-2.00269e-20
2.09214e-20
-1.39166e-20
-3.4814e-21
-6.51987e-21
2.22379e-20
2.63073e-21
-2.15185e-22
-7.96711e-21
9.9478e-22
-6.67392e-21
1.81394e-20
-4.70194e-21
4.6484e-21
3.42998e-21
7.63991e-27
-2.71051e-20
2.98341e-21
7.53968e-21
-1.37225e-20
-1.6995e-20
6.73789e-21
1.31986e-20
-1.46507e-20
-3.43473e-21
2.96068e-21
7.42171e-22
-6.76809e-21
1.5096e-20
6.00127e-21
-3.86678e-21
-1.29263e-20
3.30314e-21
4.11612e-21
-5.01883e-21
6.77629e-21
-1.64151e-25
4.77878e-21
3.31231e-21
4.22113e-21
-2.97848e-22
7.99515e-21
1.15282e-20
-7.72286e-21
1.75688e-20
-1.45551e-20
-5.12935e-21
2.29379e-21
-1.1062e-22
6.76242e-21
6.77616e-21
1.23913e-20
3.4478e-21
3.90944e-21
-1.30391e-20
6.88215e-28
-2.03289e-20
1.35958e-20
-4.86871e-21
2.2814e-21
1.61564e-21
-6.35602e-21
6.56503e-21
6.93005e-21
9.54737e-21
-1.40496e-20
1.87894e-21
1.34602e-20
-3.93151e-21
1.03308e-20
1.22106e-21
-5.43323e-22
-1.46768e-20
1.86385e-20
3.96018e-21
-1.35525e-20
-6.77653e-21
8.7017e-21
-5.43202e-22
-3.53268e-21
1.64452e-21
3.42263e-21
4.54089e-21
-3.85602e-21
4.42999e-21
6.75343e-22
-7.0723e-21
1.41091e-20
-3.2969e-21
9.54988e-22
-1.79767e-21
-3.79829e-21
1.35835e-20
8.74821e-21
-2.19524e-21
-8.58003e-27
-6.77605e-21
6.65179e-22
-8.86672e-21
1.4349e-20
1.91048e-21
-4.56958e-21
-1.75381e-20
2.14688e-20
1.58148e-20
1.19148e-20
-2.72158e-20
1.7421e-20
-9.72093e-22
-1.65749e-20
1.14028e-20
6.73625e-21
-3.9935e-21
-2.64345e-21
1.42752e-20
-1.35525e-20
-3.60816e-25
-1.11451e-20
1.32543e-20
8.99144e-21
2.86616e-21
5.38849e-21
2.44727e-21
1.01997e-20
8.31794e-21
5.51582e-21
-8.31373e-21
-4.76024e-21
4.44743e-21
8.42853e-21
-5.47679e-21
-1.92617e-21
3.9333e-21
2.10406e-20
1.14821e-20
-1.35525e-20
-5.42101e-20
1.70319e-20
8.81814e-21
-9.43691e-21
1.94135e-20
3.79742e-21
-8.4079e-22
-3.21665e-21
-4.62744e-21
2.59254e-21
2.56393e-21
3.78232e-20
-2.02075e-20
-1.36171e-20
-3.73134e-21
-3.3598e-21
-4.29105e-21
6.71706e-21
-3.28731e-21
-6.77626e-21
-1.35527e-20
-1.19236e-20
2.79973e-20
1.24471e-20
-6.94724e-21
1.78151e-21
1.65364e-20
-1.16778e-20
-4.91394e-21
-1.10892e-21
5.43101e-21
-1.13865e-20
-2.26732e-21
4.14944e-21
2.10163e-21
1.01723e-20
-1.81421e-20
-6.39795e-21
2.15926e-20
6.77624e-21
-6.77644e-21
7.80402e-21
-7.50116e-22
1.58546e-20
1.61355e-21
2.37557e-21
3.51114e-21
-1.02344e-20
8.35453e-22
-6.38195e-21
6.95154e-21
1.14745e-21
-1.57077e-20
1.31293e-20
1.18086e-20
-5.16483e-21
-3.12023e-21
8.50237e-21
-5.89792e-21
6.77626e-21
-6.77625e-21
7.97197e-21
-1.5995e-20
1.56841e-20
8.66975e-21
-3.89795e-21
-2.91176e-21
3.19939e-21
-2.84002e-21
-1.94534e-20
9.23774e-21
1.22914e-21
8.61719e-21
2.12337e-20
-3.86354e-20
1.07992e-20
-5.21165e-21
-5.52478e-21
1.65191e-20
-6.77629e-21
-2.13938e-25
-6.02291e-21
-4.38939e-21
-8.2576e-21
7.55331e-21
9.47976e-21
-3.46945e-21
-3.1706e-21
-3.38544e-21
5.4804e-21
-5.31754e-21
8.05982e-21
-2.58738e-21
-3.0733e-21
-2.18166e-20
-3.38169e-21
1.71478e-21
-3.00707e-22
7.82713e-21
6.77625e-21
-1.41217e-25
-1.01429e-20
2.2995e-20
3.52994e-22
6.73575e-21
-1.68512e-20
-3.36988e-21
3.76226e-21
1.84647e-20
-1.14649e-20
7.89099e-21
-3.12669e-21
-1.84564e-20
-3.24656e-21
-4.45136e-21
-8.29535e-21
1.39636e-20
1.91494e-21
-5.62193e-21
-2.17378e-26
2.71051e-20
1.65382e-21
-1.65312e-20
1.2971e-21
1.32656e-21
-3.82736e-21
3.73363e-21
-1.16369e-20
1.01245e-20
-5.59368e-21
-1.14167e-20
2.99482e-21
9.93274e-21
-1.0714e-20
5.02201e-21
9.65e-21
-1.46423e-20
-6.63628e-21
6.85243e-21
-6.77628e-21
-2.03291e-20
1.35103e-20
9.18209e-22
9.38275e-22
-7.36332e-21
4.38611e-21
6.2042e-21
-3.45575e-20
5.02985e-21
-9.2651e-21
1.34462e-20
5.62733e-21
7.69426e-21
-7.25456e-22
-6.52599e-22
1.00109e-20
-1.78478e-20
-1.93194e-21
-6.66671e-21
6.77624e-21
2.7105e-20
-3.6803e-21
-2.8837e-20
-1.91602e-20
-1.15227e-20
7.43024e-21
-5.80242e-21
1.28979e-20
-3.23873e-21
-6.60932e-21
-2.57668e-21
2.68408e-20
4.74997e-22
-1.6708e-21
-1.17087e-20
-6.28857e-21
-7.90691e-21
1.06964e-20
3.33268e-21
6.77624e-21
-6.77625e-21
8.44099e-21
-1.0518e-20
1.90253e-20
9.67308e-22
-6.2918e-21
1.0304e-20
1.34542e-20
1.33718e-21
-3.29896e-21
-2.38885e-20
-2.89097e-21
8.57281e-21
1.05767e-20
-3.30046e-21
-1.51499e-20
1.4519e-21
7.95808e-21
1.96993e-20
-1.54785e-26
-2.71052e-20
6.77633e-21
6.77622e-21
-2.51703e-26
1.35525e-20
2.03288e-20
2.03288e-20
-1.35526e-20
-6.77629e-21
-6.77629e-21
-1.35526e-20
-6.77629e-21
2.7105e-20
6.77624e-21
-6.77628e-21
-1.21707e-26
-1.71621e-26
-6.77629e-21
1.35525e-20
2.23653e-27
)
;

boundaryField
{
    movingWall
    {
        type            zeroGradient;
    }
    fixedWalls
    {
        type            zeroGradient;
    }
    frontAndBack
    {
        type            empty;
    }
}


// ************************************************************************* //
