/*--------------------------------*- C++ -*----------------------------------*\
| =========                 |                                                 |
| \\      /  F ield         | OpenFOAM: The Open Source CFD Toolbox           |
|  \\    /   O peration     | Version:  2506                                  |
|   \\  /    A nd           | Website:  www.openfoam.com                      |
|    \\/     M anipulation  |                                                 |
\*---------------------------------------------------------------------------*/
FoamFile
{
    version     2.0;
    format      ascii;
    arch        "LSB;label=32;scalar=64";
    class       volScalarField;
    location    "7.5";
    object      initialResidual:k;
}
// * * * * * * * * * * * * * * * * * * * * * * * * * * * * * * * * * * * * * //

dimensions      [0 0 0 0 0 0 0];

internalField   nonuniform List<scalar> 
400
(
-4.14228e-13
-4.14199e-13
-4.14205e-13
-4.14217e-13
-4.1422e-13
-4.1422e-13
-4.14226e-13
-4.14221e-13
-4.14221e-13
-4.14214e-13
-4.1422e-13
-4.1421e-13
-4.14219e-13
-4.14213e-13
-4.14228e-13
-4.14209e-13
-4.14219e-13
-4.14213e-13
-4.14215e-13
-4.14216e-13
-4.36903e-13
-4.38487e-13
-4.36125e-13
-4.37681e-13
-4.36473e-13
-4.3741e-13
-4.36667e-13
-4.37237e-13
-4.36818e-13
-4.37266e-13
-4.36747e-13
-4.37455e-13
-4.366e-13
-4.37434e-13
-4.36596e-13
-4.3732e-13
-4.36702e-13
-4.37021e-13
-4.36923e-13
-4.36973e-13
-4.70329e-13
-4.70587e-13
-4.6993e-13
-4.71019e-13
-4.69536e-13
-4.70836e-13
-4.69478e-13
-4.71027e-13
-4.69319e-13
-4.70975e-13
-4.69352e-13
-4.70802e-13
-4.69436e-13
-4.70697e-13
-4.69522e-13
-4.7052e-13
-4.69714e-13
-4.70134e-13
-4.70013e-13
-4.70082e-13
-5.00589e-13
-5.03263e-13
-4.99232e-13
-5.01566e-13
-5.00138e-13
-5.01635e-13
-5.00098e-13
-5.01472e-13
-5.00143e-13
-5.0137e-13
-5.00152e-13
-5.01322e-13
-5.00184e-13
-5.01251e-13
-5.00271e-13
-5.01136e-13
-5.00403e-13
-5.00775e-13
-5.00667e-13
-5.0072e-13
-5.23034e-13
-5.26973e-13
-5.20688e-13
-5.22821e-13
-5.23361e-13
-5.23013e-13
-5.2334e-13
-5.23483e-13
-5.22848e-13
-5.24131e-13
-5.22199e-13
-5.2406e-13
-5.2219e-13
-5.23941e-13
-5.22318e-13
-5.23633e-13
-5.22612e-13
-5.23148e-13
-5.22996e-13
-5.23085e-13
-5.37466e-13
-5.3864e-13
-5.36542e-13
-5.38179e-13
-5.36636e-13
-5.3839e-13
-5.36357e-13
-5.38308e-13
-5.36439e-13
-5.37894e-13
-5.36695e-13
-5.38046e-13
-5.36615e-13
-5.37962e-13
-5.3667e-13
-5.37757e-13
-5.36865e-13
-5.37325e-13
-5.3719e-13
-5.37263e-13
-5.45654e-13
-5.4929e-13
-5.43356e-13
-5.45018e-13
-5.46387e-13
-5.45422e-13
-5.45988e-13
-5.45559e-13
-5.45843e-13
-5.45758e-13
-5.45645e-13
-5.4623e-13
-5.45177e-13
-5.46424e-13
-5.44916e-13
-5.46197e-13
-5.45127e-13
-5.45678e-13
-5.45524e-13
-5.45619e-13
-5.50767e-13
-5.51119e-13
-5.50294e-13
-5.51802e-13
-5.49899e-13
-5.51763e-13
-5.4952e-13
-5.51797e-13
-5.49418e-13
-5.52011e-13
-5.49229e-13
-5.51891e-13
-5.49286e-13
-5.51577e-13
-5.49545e-13
-5.5119e-13
-5.49943e-13
-5.50594e-13
-5.50421e-13
-5.50522e-13
-5.53841e-13
-5.5432e-13
-5.53709e-13
-5.53621e-13
-5.54135e-13
-5.53527e-13
-5.53979e-13
-5.53493e-13
-5.53865e-13
-5.53424e-13
-5.53758e-13
-5.53597e-13
-5.53738e-13
-5.53856e-13
-5.53289e-13
-5.53626e-13
-5.53824e-13
-5.53683e-13
-5.53669e-13
-5.53616e-13
-5.56105e-13
-5.58415e-13
-5.54391e-13
-5.55444e-13
-5.5659e-13
-5.55746e-13
-5.56177e-13
-5.55909e-13
-5.55994e-13
-5.55998e-13
-5.55923e-13
-5.56763e-13
-5.55118e-13
-5.56774e-13
-5.55051e-13
-5.56483e-13
-5.55334e-13
-5.55928e-13
-5.5577e-13
-5.5587e-13
-5.57895e-13
-5.58921e-13
-5.57483e-13
-5.5781e-13
-5.58433e-13
-5.57617e-13
-5.58147e-13
-5.57811e-13
-5.58064e-13
-5.57712e-13
-5.58009e-13
-5.57706e-13
-5.57908e-13
-5.57756e-13
-5.57881e-13
-5.57784e-13
-5.57897e-13
-5.57853e-13
-5.57854e-13
-5.57802e-13
-5.59982e-13
-5.615e-13
-5.58796e-13
-5.5954e-13
-5.60167e-13
-5.59991e-13
-5.59605e-13
-5.60171e-13
-5.59402e-13
-5.60396e-13
-5.59179e-13
-5.60479e-13
-5.59041e-13
-5.60222e-13
-5.59182e-13
-5.60121e-13
-5.59326e-13
-5.5974e-13
-5.59614e-13
-5.59688e-13
-5.61932e-13
-5.63183e-13
-5.61041e-13
-5.61983e-13
-5.6178e-13
-5.61955e-13
-5.6175e-13
-5.61925e-13
-5.61619e-13
-5.62122e-13
-5.61362e-13
-5.62303e-13
-5.61175e-13
-5.62287e-13
-5.6116e-13
-5.62155e-13
-5.61317e-13
-5.61745e-13
-5.61616e-13
-5.61681e-13
-5.64132e-13
-5.6434e-13
-5.63911e-13
-5.65066e-13
-5.63354e-13
-5.63962e-13
-5.63941e-13
-5.64251e-13
-5.63743e-13
-5.64361e-13
-5.63547e-13
-5.64507e-13
-5.63383e-13
-5.64484e-13
-5.63353e-13
-5.64377e-13
-5.63489e-13
-5.63943e-13
-5.63817e-13
-5.63882e-13
-5.66417e-13
-5.68575e-13
-5.65066e-13
-5.67546e-13
-5.65529e-13
-5.6722e-13
-5.65733e-13
-5.66949e-13
-5.65817e-13
-5.67339e-13
-5.65524e-13
-5.67478e-13
-5.65395e-13
-5.67308e-13
-5.65525e-13
-5.66997e-13
-5.6583e-13
-5.66422e-13
-5.66274e-13
-5.66355e-13
-5.69381e-13
-5.70345e-13
-5.68806e-13
-5.68945e-13
-5.69692e-13
-5.69247e-13
-5.694e-13
-5.69084e-13
-5.69338e-13
-5.69081e-13
-5.69347e-13
-5.68939e-13
-5.69308e-13
-5.69017e-13
-5.69255e-13
-5.69064e-13
-5.69213e-13
-5.6915e-13
-5.69161e-13
-5.69118e-13
-5.72283e-13
-5.73457e-13
-5.71614e-13
-5.7194e-13
-5.72647e-13
-5.72088e-13
-5.72331e-13
-5.7212e-13
-5.7234e-13
-5.71956e-13
-5.72333e-13
-5.71887e-13
-5.72255e-13
-5.72012e-13
-5.72194e-13
-5.72047e-13
-5.72171e-13
-5.7212e-13
-5.72129e-13
-5.7208e-13
-5.75357e-13
-5.73219e-13
-5.77209e-13
-5.75007e-13
-5.75364e-13
-5.75092e-13
-5.75204e-13
-5.74911e-13
-5.7506e-13
-5.74919e-13
-5.74782e-13
-5.75499e-13
-5.74853e-13
-5.74974e-13
-5.75057e-13
-5.75099e-13
-5.75071e-13
-5.7498e-13
-5.74973e-13
-5.74977e-13
-5.77526e-13
-5.79199e-13
-5.76493e-13
-5.7751e-13
-5.77507e-13
-5.773e-13
-5.77632e-13
-5.77903e-13
-5.77045e-13
-5.77639e-13
-5.77154e-13
-5.77929e-13
-5.76957e-13
-5.77933e-13
-5.76917e-13
-5.77817e-13
-5.77018e-13
-5.77432e-13
-5.77294e-13
-5.77364e-13
-5.78624e-13
-5.79047e-13
-5.78297e-13
-5.79231e-13
-5.7821e-13
-5.79212e-13
-5.78325e-13
-5.79027e-13
-5.78551e-13
-5.78805e-13
-5.78701e-13
-5.78727e-13
-5.78732e-13
-5.78733e-13
-5.78732e-13
-5.78734e-13
-5.78731e-13
-5.78733e-13
-5.78731e-13
-5.78732e-13
)
;

boundaryField
{
    movingWall
    {
        type            zeroGradient;
    }
    fixedWalls
    {
        type            zeroGradient;
    }
    frontAndBack
    {
        type            empty;
    }
}


// ************************************************************************* //
