/*--------------------------------*- C++ -*----------------------------------*\
| =========                 |                                                 |
| \\      /  F ield         | OpenFOAM: The Open Source CFD Toolbox           |
|  \\    /   O peration     | Version:  2506                                  |
|   \\  /    A nd           | Website:  www.openfoam.com                      |
|    \\/     M anipulation  |                                                 |
\*---------------------------------------------------------------------------*/
FoamFile
{
    version     2.0;
    format      ascii;
    arch        "LSB;label=32;scalar=64";
    class       volScalarField;
    location    "7.5";
    object      initialResidual:Uy;
}
// * * * * * * * * * * * * * * * * * * * * * * * * * * * * * * * * * * * * * //

dimensions      [0 0 0 0 0 0 0];

internalField   nonuniform List<scalar> 
400
(
-3.69583e-20
-3.30538e-21
2.88531e-21
2.1713e-21
-4.39964e-22
-5.75383e-21
1.75967e-22
-3.15766e-22
-3.78874e-21
5.08895e-22
-6.96624e-22
-7.04183e-21
6.90476e-22
4.35424e-21
-2.79737e-22
-1.04914e-21
2.62185e-21
-6.80029e-22
-2.9921e-21
-1.07629e-21
-5.19168e-20
-8.21082e-21
7.85761e-22
6.53469e-22
-4.38114e-21
-8.16864e-21
2.76531e-21
4.84247e-21
-2.01855e-21
-5.02356e-21
-2.22803e-21
-1.48711e-21
-1.54176e-21
5.61706e-22
-1.29487e-21
-2.07334e-21
-7.5965e-22
-4.09664e-21
-5.18521e-21
-1.59604e-21
-2.59894e-20
-1.47737e-20
-7.59307e-21
-3.31776e-21
-5.9064e-21
-8.56994e-21
-4.70344e-21
1.27194e-21
1.07386e-21
-2.49294e-21
1.94963e-22
3.30836e-21
-2.07719e-21
2.44696e-21
2.52622e-21
-2.37041e-21
-6.00907e-21
-4.47356e-21
-6.9345e-21
-2.22152e-21
-1.7837e-20
-9.48331e-21
-1.33353e-20
-1.40845e-20
-1.00405e-20
-7.20459e-21
-1.07855e-20
-1.28579e-20
-4.3454e-21
5.68284e-21
1.98226e-21
-8.729e-22
2.30545e-21
3.39378e-21
-2.25214e-22
-4.51734e-21
-4.94709e-21
-3.92462e-21
-2.22842e-21
-8.45768e-22
-7.26978e-21
-8.46058e-21
-1.60713e-20
-1.71524e-20
-1.21301e-20
-2.65353e-21
-8.20015e-21
-1.25862e-20
-6.728e-21
3.4431e-22
2.69532e-21
2.57244e-21
1.28839e-22
-1.85783e-21
-2.26003e-21
-3.92217e-21
-5.34779e-21
-5.33193e-21
4.46706e-21
9.467e-22
-2.34102e-20
-9.97596e-21
-5.10799e-21
-4.04079e-21
-5.576e-21
-5.95733e-21
-8.76268e-21
-1.08572e-20
-9.08959e-21
-4.03904e-21
3.56693e-21
-3.40296e-22
4.87119e-22
5.12027e-21
5.4655e-21
1.61773e-21
-2.66846e-21
-4.86195e-21
-2.92011e-21
-1.05435e-21
-2.03954e-20
3.29567e-21
-3.60373e-21
-9.82097e-21
-4.10776e-21
-2.35092e-21
-4.44164e-21
-1.03077e-20
-5.97976e-21
1.23568e-21
-9.90047e-22
-3.20636e-21
7.37567e-21
5.71847e-21
7.89466e-22
-3.25674e-21
-5.43295e-22
1.04522e-21
-5.21295e-21
-7.13717e-22
-2.05623e-20
6.25965e-21
-1.05396e-20
-1.25207e-20
-7.58508e-21
-5.66688e-21
-5.41515e-21
-7.8624e-22
1.77945e-21
-7.66416e-22
-1.98983e-21
2.90334e-21
1.66545e-21
-8.74407e-22
-3.65167e-21
-8.08377e-21
-2.53607e-22
8.98865e-21
1.31008e-21
-2.36123e-21
-7.48649e-21
-2.39925e-21
-9.51901e-21
-7.22635e-21
-5.13509e-21
-5.67082e-21
-2.11901e-21
4.72305e-21
4.09567e-21
-5.86682e-21
-4.53141e-21
6.70157e-21
3.26963e-21
-2.61962e-21
-2.84816e-21
2.16373e-21
4.90924e-21
7.58319e-21
-2.30726e-22
-4.51363e-21
9.91861e-22
-9.19121e-21
-8.85116e-21
-4.78627e-21
-3.59708e-21
-5.19789e-21
-1.86547e-21
4.54629e-21
4.65739e-21
3.4253e-21
-2.18911e-21
3.27713e-21
5.14163e-21
-8.55778e-23
3.60313e-22
6.11902e-21
6.00537e-21
2.56943e-21
-5.41978e-21
-1.90649e-21
-3.33733e-20
1.06645e-20
-2.56637e-21
-1.48056e-21
-3.68917e-22
-3.90124e-21
-1.5466e-21
2.23826e-21
2.70434e-21
2.04718e-21
-2.19639e-22
2.64463e-21
-1.37119e-22
8.64075e-22
2.92209e-21
4.22069e-21
3.98753e-21
4.65543e-22
-1.84969e-21
1.09083e-22
4.52355e-21
-8.26595e-21
1.43269e-21
-1.96566e-22
1.07323e-21
3.09483e-21
4.6848e-21
4.19484e-21
2.50543e-21
-3.01118e-21
-5.59374e-21
-2.66326e-22
7.11364e-21
8.47617e-21
3.49009e-21
2.77583e-21
6.10812e-21
9.88124e-23
1.82749e-21
1.39638e-21
-6.79921e-21
-1.27933e-20
-5.02359e-21
3.25228e-21
-1.1339e-21
1.20343e-21
4.13381e-21
5.72227e-21
4.11609e-21
1.23943e-21
1.3804e-21
-2.65191e-21
3.67287e-21
5.85633e-21
4.65553e-21
2.45659e-21
3.64364e-21
1.27159e-21
3.62144e-21
3.10667e-22
-2.1192e-20
-1.44134e-21
-9.71329e-21
-6.05182e-22
1.40274e-21
1.91491e-21
3.16733e-21
2.02508e-21
4.48499e-21
4.41591e-21
5.19098e-21
4.40193e-21
-2.27793e-21
-4.36484e-21
-2.24334e-21
5.78111e-21
1.54587e-21
-7.43163e-24
4.75864e-21
-3.57308e-22
2.28746e-20
-1.84487e-20
-8.23859e-22
-1.97908e-21
-2.52278e-21
1.95632e-21
2.85847e-21
3.45859e-21
4.44264e-21
6.16893e-21
3.93246e-21
3.40825e-21
-3.08094e-21
-5.53122e-21
-8.42725e-21
1.89321e-21
2.45278e-21
1.65757e-22
2.49095e-21
1.39386e-21
-5.58369e-21
6.13141e-22
6.64289e-21
7.10736e-22
-1.65967e-21
4.87141e-21
6.48488e-21
6.81001e-22
7.23413e-21
7.05817e-21
-1.53667e-21
-6.77771e-21
-6.13319e-21
-3.22824e-21
-3.8147e-21
-4.49556e-21
-1.20474e-21
1.03218e-21
4.71671e-22
9.06291e-23
-3.18312e-21
2.19161e-21
4.7673e-21
2.36493e-21
-6.3135e-22
-8.384e-22
1.69484e-21
1.37543e-21
4.39871e-21
-6.74891e-22
-4.50056e-21
-1.19313e-21
1.88288e-21
-2.13806e-21
2.86646e-22
-7.79473e-21
-6.04549e-21
-2.12536e-22
3.49215e-22
-1.265e-21
2.01631e-20
-7.91641e-21
1.09718e-21
-2.12035e-21
-3.07187e-22
-6.13667e-21
-6.4041e-21
1.34299e-21
-7.2639e-21
-6.02636e-21
6.25872e-21
3.06711e-21
-5.3498e-21
-2.73171e-21
5.85961e-21
-3.00361e-22
-4.08898e-21
-4.55524e-21
-3.458e-21
3.13748e-22
1.24469e-21
1.48713e-21
-3.0546e-21
-2.01997e-21
-4.29564e-21
-9.00235e-21
-8.74276e-21
-9.33464e-22
-4.2495e-21
2.18936e-21
1.09791e-20
-8.40233e-22
-1.16945e-20
-4.45115e-21
-3.94159e-22
9.93431e-22
2.61508e-21
-1.13546e-21
-4.71802e-21
5.75463e-22
-2.03356e-21
4.82583e-21
-2.84906e-21
1.9359e-21
-6.03595e-21
-7.10062e-21
-4.80247e-21
1.46614e-21
2.19751e-21
2.90359e-21
4.76559e-21
-1.59019e-22
-1.42278e-21
-3.66108e-21
-6.95373e-21
-3.45398e-21
2.49186e-21
3.49094e-21
-6.03059e-23
-1.90368e-22
)
;

boundaryField
{
    movingWall
    {
        type            zeroGradient;
    }
    fixedWalls
    {
        type            zeroGradient;
    }
    frontAndBack
    {
        type            empty;
    }
}


// ************************************************************************* //
