/*--------------------------------*- C++ -*----------------------------------*\
| =========                 |                                                 |
| \\      /  F ield         | OpenFOAM: The Open Source CFD Toolbox           |
|  \\    /   O peration     | Version:  2506                                  |
|   \\  /    A nd           | Website:  www.openfoam.com                      |
|    \\/     M anipulation  |                                                 |
\*---------------------------------------------------------------------------*/
FoamFile
{
    version     2.0;
    format      ascii;
    arch        "LSB;label=32;scalar=64";
    class       volScalarField;
    location    "7.5";
    object      k;
}
// * * * * * * * * * * * * * * * * * * * * * * * * * * * * * * * * * * * * * //

dimensions      [0 2 -2 0 0 0 0];

internalField   nonuniform List<scalar> 
400
(
4.84182e-06
4.8418e-06
4.84182e-06
4.84178e-06
4.84183e-06
4.84178e-06
4.84183e-06
4.84177e-06
4.84182e-06
4.84178e-06
4.84181e-06
4.84179e-06
4.8418e-06
4.84179e-06
4.84179e-06
4.84179e-06
4.84179e-06
4.84179e-06
4.84179e-06
4.84179e-06
4.9657e-06
4.9657e-06
4.96552e-06
4.96544e-06
4.96532e-06
4.96525e-06
4.96514e-06
4.96508e-06
4.96499e-06
4.96494e-06
4.96487e-06
4.96483e-06
4.96477e-06
4.96474e-06
4.9647e-06
4.96468e-06
4.96465e-06
4.96464e-06
4.96463e-06
4.96463e-06
5.15506e-06
5.15506e-06
5.15486e-06
5.15477e-06
5.15464e-06
5.15456e-06
5.15445e-06
5.15438e-06
5.15428e-06
5.15422e-06
5.15415e-06
5.1541e-06
5.15404e-06
5.154e-06
5.15396e-06
5.15394e-06
5.15391e-06
5.1539e-06
5.15389e-06
5.15389e-06
5.34513e-06
5.34513e-06
5.34492e-06
5.34482e-06
5.34468e-06
5.34459e-06
5.34447e-06
5.34439e-06
5.34429e-06
5.34423e-06
5.34415e-06
5.3441e-06
5.34404e-06
5.34399e-06
5.34395e-06
5.34392e-06
5.3439e-06
5.34388e-06
5.34387e-06
5.34387e-06
5.49746e-06
5.49745e-06
5.49724e-06
5.49714e-06
5.49697e-06
5.4969e-06
5.49675e-06
5.49669e-06
5.49657e-06
5.49651e-06
5.49642e-06
5.49636e-06
5.4963e-06
5.49625e-06
5.49621e-06
5.49618e-06
5.49615e-06
5.49614e-06
5.49613e-06
5.49612e-06
5.60363e-06
5.60363e-06
5.60339e-06
5.60329e-06
5.60313e-06
5.60304e-06
5.60291e-06
5.60282e-06
5.60271e-06
5.60264e-06
5.60255e-06
5.60249e-06
5.60243e-06
5.60238e-06
5.60233e-06
5.6023e-06
5.60227e-06
5.60226e-06
5.60225e-06
5.60224e-06
5.67174e-06
5.67174e-06
5.6715e-06
5.67141e-06
5.6712e-06
5.67116e-06
5.67097e-06
5.67093e-06
5.67078e-06
5.67074e-06
5.67062e-06
5.67058e-06
5.6705e-06
5.67046e-06
5.67041e-06
5.67038e-06
5.67035e-06
5.67033e-06
5.67032e-06
5.67031e-06
5.7141e-06
5.7141e-06
5.71385e-06
5.71374e-06
5.71358e-06
5.71348e-06
5.71335e-06
5.71325e-06
5.71314e-06
5.71306e-06
5.71298e-06
5.71291e-06
5.71285e-06
5.71279e-06
5.71275e-06
5.71271e-06
5.71269e-06
5.71267e-06
5.71266e-06
5.71265e-06
5.74121e-06
5.74121e-06
5.74094e-06
5.74085e-06
5.74066e-06
5.74059e-06
5.74042e-06
5.74036e-06
5.74023e-06
5.74016e-06
5.74007e-06
5.74e-06
5.73993e-06
5.73988e-06
5.73984e-06
5.73981e-06
5.73977e-06
5.73976e-06
5.73974e-06
5.73974e-06
5.76023e-06
5.76022e-06
5.75997e-06
5.75989e-06
5.75967e-06
5.75962e-06
5.75943e-06
5.75939e-06
5.75923e-06
5.75919e-06
5.75906e-06
5.75903e-06
5.75895e-06
5.7589e-06
5.75885e-06
5.75882e-06
5.75879e-06
5.75877e-06
5.75876e-06
5.75875e-06
5.77555e-06
5.77555e-06
5.7753e-06
5.77519e-06
5.77501e-06
5.77491e-06
5.77478e-06
5.77467e-06
5.77458e-06
5.77447e-06
5.77442e-06
5.77431e-06
5.77429e-06
5.77419e-06
5.77418e-06
5.77411e-06
5.77411e-06
5.77408e-06
5.77407e-06
5.77407e-06
5.78968e-06
5.78967e-06
5.78942e-06
5.78932e-06
5.78913e-06
5.78905e-06
5.78889e-06
5.78882e-06
5.78869e-06
5.78862e-06
5.78852e-06
5.78846e-06
5.78839e-06
5.78834e-06
5.78829e-06
5.78825e-06
5.78822e-06
5.78821e-06
5.78819e-06
5.78819e-06
5.80406e-06
5.80406e-06
5.8038e-06
5.8037e-06
5.80351e-06
5.80343e-06
5.80326e-06
5.8032e-06
5.80305e-06
5.803e-06
5.80289e-06
5.80283e-06
5.80276e-06
5.80271e-06
5.80266e-06
5.80262e-06
5.80259e-06
5.80258e-06
5.80256e-06
5.80256e-06
5.81951e-06
5.81951e-06
5.81924e-06
5.81914e-06
5.81896e-06
5.81888e-06
5.81871e-06
5.81864e-06
5.8185e-06
5.81844e-06
5.81833e-06
5.81828e-06
5.8182e-06
5.81815e-06
5.8181e-06
5.81807e-06
5.81804e-06
5.81802e-06
5.81801e-06
5.818e-06
5.83644e-06
5.83643e-06
5.83618e-06
5.83606e-06
5.83589e-06
5.83579e-06
5.83565e-06
5.83556e-06
5.83544e-06
5.83536e-06
5.83526e-06
5.8352e-06
5.83513e-06
5.83508e-06
5.83503e-06
5.83499e-06
5.83496e-06
5.83494e-06
5.83493e-06
5.83492e-06
5.85477e-06
5.85477e-06
5.85451e-06
5.8544e-06
5.85422e-06
5.85412e-06
5.85397e-06
5.85387e-06
5.85377e-06
5.85367e-06
5.8536e-06
5.8535e-06
5.85346e-06
5.85338e-06
5.85336e-06
5.8533e-06
5.85329e-06
5.85326e-06
5.85325e-06
5.85325e-06
5.87371e-06
5.87371e-06
5.87345e-06
5.87334e-06
5.87316e-06
5.87305e-06
5.87292e-06
5.8728e-06
5.87271e-06
5.87259e-06
5.87254e-06
5.87243e-06
5.87241e-06
5.8723e-06
5.8723e-06
5.87222e-06
5.87222e-06
5.87219e-06
5.87218e-06
5.87218e-06
5.89156e-06
5.89157e-06
5.89125e-06
5.89119e-06
5.89099e-06
5.8909e-06
5.89074e-06
5.89066e-06
5.89053e-06
5.89046e-06
5.89036e-06
5.8903e-06
5.89021e-06
5.89017e-06
5.89011e-06
5.89008e-06
5.89004e-06
5.89003e-06
5.89002e-06
5.89001e-06
5.90574e-06
5.90574e-06
5.90548e-06
5.90539e-06
5.90519e-06
5.90512e-06
5.90494e-06
5.90488e-06
5.90474e-06
5.90468e-06
5.90457e-06
5.90452e-06
5.90444e-06
5.90439e-06
5.90434e-06
5.9043e-06
5.90427e-06
5.90425e-06
5.90424e-06
5.90424e-06
5.91223e-06
5.91223e-06
5.91223e-06
5.91223e-06
5.91222e-06
5.91222e-06
5.91222e-06
5.91222e-06
5.91221e-06
5.91221e-06
5.91221e-06
5.91221e-06
5.91221e-06
5.91221e-06
5.91221e-06
5.91221e-06
5.91221e-06
5.91221e-06
5.91221e-06
5.91221e-06
)
;

boundaryField
{
    movingWall
    {
        type            kqRWallFunction;
        value           nonuniform List<scalar> 
20
(
5.91223e-06
5.91223e-06
5.91223e-06
5.91223e-06
5.91222e-06
5.91222e-06
5.91222e-06
5.91222e-06
5.91221e-06
5.91221e-06
5.91221e-06
5.91221e-06
5.91221e-06
5.91221e-06
5.91221e-06
5.91221e-06
5.91221e-06
5.91221e-06
5.91221e-06
5.91221e-06
)
;
    }
    fixedWalls
    {
        type            kqRWallFunction;
        value           nonuniform List<scalar> 
60
(
4.84182e-06
4.9657e-06
5.15506e-06
5.34513e-06
5.49746e-06
5.60363e-06
5.67174e-06
5.7141e-06
5.74121e-06
5.76023e-06
5.77555e-06
5.78968e-06
5.80406e-06
5.81951e-06
5.83644e-06
5.85477e-06
5.87371e-06
5.89156e-06
5.90574e-06
5.91223e-06
4.84179e-06
4.96463e-06
5.15389e-06
5.34387e-06
5.49612e-06
5.60224e-06
5.67031e-06
5.71265e-06
5.73974e-06
5.75875e-06
5.77407e-06
5.78819e-06
5.80256e-06
5.818e-06
5.83492e-06
5.85325e-06
5.87218e-06
5.89001e-06
5.90424e-06
5.91221e-06
4.84182e-06
4.8418e-06
4.84182e-06
4.84178e-06
4.84183e-06
4.84178e-06
4.84183e-06
4.84177e-06
4.84182e-06
4.84178e-06
4.84181e-06
4.84179e-06
4.8418e-06
4.84179e-06
4.84179e-06
4.84179e-06
4.84179e-06
4.84179e-06
4.84179e-06
4.84179e-06
)
;
    }
    frontAndBack
    {
        type            empty;
    }
}


// ************************************************************************* //
