/*--------------------------------*- C++ -*----------------------------------*\
| =========                 |                                                 |
| \\      /  F ield         | OpenFOAM: The Open Source CFD Toolbox           |
|  \\    /   O peration     | Version:  2506                                  |
|   \\  /    A nd           | Website:  www.openfoam.com                      |
|    \\/     M anipulation  |                                                 |
\*---------------------------------------------------------------------------*/
FoamFile
{
    version     2.0;
    format      ascii;
    arch        "LSB;label=32;scalar=64";
    class       volScalarField;
    location    "7.5";
    object      Lambda2Field;
}
// * * * * * * * * * * * * * * * * * * * * * * * * * * * * * * * * * * * * * //

dimensions      [0 0 -2 0 0 0 0];

internalField   nonuniform List<scalar> 
400
(
2.16849e-23
1.06951e-23
2.65221e-25
2.46472e-26
9.58889e-27
0
0
2.45548e-28
0
0
6.64623e-28
4.59255e-28
2.1986e-30
0
5.28907e-28
5.33721e-28
4.55717e-29
1.14785e-29
1.04631e-28
5.47217e-29
6.32844e-24
1.23865e-23
9.01828e-25
3.22042e-27
3.70094e-27
-1.8601e-27
0
2.45745e-28
1.88223e-28
4.33094e-28
0
-3.73921e-28
0
5.18763e-29
2.86702e-29
0
0
-5.6946e-28
4.2425e-28
0
6.11081e-23
2.3725e-23
3.72517e-25
1.05427e-25
0
2.15792e-27
8.00573e-28
5.0219e-28
0
-6.96462e-28
3.77774e-28
9.08866e-28
3.75776e-28
0
5.18746e-29
0
-3.2376e-28
-2.77514e-28
0
0
5.20438e-23
1.85275e-23
7.99481e-25
-1.30639e-26
2.20664e-26
-6.22671e-27
9.47258e-28
0
0
1.14006e-28
4.69067e-28
8.23494e-28
0
0
0
-6.29758e-28
0
-2.45799e-28
2.66264e-28
-8.89555e-28
7.2241e-24
1.07829e-23
8.60324e-25
6.61216e-27
1.14767e-27
6.92976e-28
3.01646e-28
0
-9.38996e-30
-1.17769e-28
0
3.1282e-29
0
-3.42367e-29
0
0
6.88232e-29
1.72914e-28
-1.69735e-28
5.00503e-28
3.2294e-23
1.7141e-23
7.1375e-25
0
3.02572e-27
0
0
4.23423e-28
0
-1.2509e-29
-4.10128e-28
4.44254e-28
-9.98572e-28
-1.89309e-27
-5.24055e-28
3.98795e-28
1.78226e-28
2.48486e-28
1.2639e-28
1.68204e-28
4.95282e-23
1.93751e-23
-3.85198e-26
1.73692e-25
-2.65348e-26
4.97841e-27
1.71732e-27
1.13989e-27
-1.38978e-27
2.14673e-28
0
-1.10009e-28
0
0
5.25395e-28
2.29809e-27
1.71899e-29
0
6.18891e-28
1.55987e-28
8.09301e-24
4.0175e-24
1.26629e-25
3.94744e-26
0
2.55455e-28
5.21243e-28
2.60107e-29
0
8.26583e-29
0
4.05291e-28
0
0
0
2.40461e-28
-1.81128e-27
0
0
0
2.39124e-24
3.8506e-24
8.68901e-27
4.57054e-26
0
1.61908e-27
3.107e-28
7.63831e-29
0
0
0
-3.97848e-28
5.08354e-28
5.32007e-28
0
0
-1.40924e-27
0
7.06091e-28
-3.24423e-28
2.38171e-23
8.8667e-24
0
6.61216e-27
4.45942e-27
-7.39023e-28
3.79236e-28
0
0
-6.16907e-29
8.34284e-29
4.97973e-28
0
1.80551e-28
0
-1.84585e-28
0
7.34684e-28
1.12607e-27
2.11275e-29
1.29331e-23
5.50785e-24
-1.5828e-25
-1.67141e-26
-1.44494e-26
1.75536e-27
0
1.09643e-27
6.85387e-29
-1.13422e-27
-1.13157e-27
1.64546e-28
8.25314e-28
2.03037e-27
4.27727e-28
-1.8845e-28
-1.07811e-27
0
8.47165e-29
-5.78711e-28
0
3.08497e-25
0
5.32888e-26
-5.10766e-27
1.46134e-27
-1.29315e-27
0
5.93139e-28
3.76804e-28
1.75363e-28
-3.3369e-27
-3.11498e-27
3.77234e-28
1.45794e-27
0
-1.9831e-28
0
4.87415e-28
0
1.37793e-24
3.04014e-25
4.19227e-26
1.29954e-26
3.3038e-27
5.32145e-30
6.35827e-28
0
1.10684e-29
0
5.19862e-28
2.16705e-28
3.19342e-28
2.08607e-27
0
2.1039e-28
0
0
1.39536e-28
0
2.30622e-26
2.8723e-24
-1.81569e-27
3.84311e-26
-3.74531e-27
3.15235e-27
1.04165e-28
8.35288e-28
3.49565e-28
6.62761e-28
5.96954e-28
-8.96233e-28
-2.59601e-27
-2.35496e-27
2.3172e-28
1.01998e-27
4.53815e-28
0
0
0
1.71732e-23
8.41134e-24
-4.21379e-25
4.00722e-26
-2.25526e-26
1.36766e-27
-8.25528e-28
0
0
0
-4.5108e-28
-4.41486e-28
6.25365e-28
9.6087e-28
5.24489e-28
0
1.15493e-28
1.32982e-28
1.0706e-30
0
2.28123e-23
1.04578e-23
3.92687e-25
1.17549e-26
3.25351e-27
-3.61746e-27
-3.79923e-29
0
2.5179e-31
-1.9355e-28
-4.49725e-28
-4.05028e-28
0
0
0
4.41676e-28
1.14849e-27
3.4893e-28
0
0
8.61779e-24
9.03712e-24
6.85495e-25
6.61216e-27
7.87978e-27
-7.50629e-29
0
0
0
6.34086e-28
1.21176e-28
-4.98775e-28
0
1.68142e-29
-1.71058e-27
0
0
-1.12043e-27
0
0
5.79662e-23
1.79914e-23
4.97648e-25
5.12929e-26
7.26496e-27
0
-1.25541e-27
0
-9.41115e-28
2.73528e-28
0
0
2.25934e-27
4.73193e-28
4.32328e-28
2.35116e-28
7.21689e-28
0
1.01427e-28
1.56832e-28
7.94573e-24
1.07536e-23
2.35938e-25
2.8308e-26
-7.90343e-27
-1.17891e-27
-1.26166e-27
6.84053e-28
-5.53248e-28
6.82429e-29
-3.80411e-28
-3.86986e-27
-3.42923e-28
1.4735e-27
4.693e-28
1.81499e-28
0
-3.08419e-29
2.17996e-29
2.13043e-29
1.07545e-23
3.83496e-24
2.87426e-25
7.34684e-28
7.03089e-27
3.1992e-28
7.83458e-28
-4.18598e-28
-1.34741e-28
0
1.85302e-28
4.69833e-28
9.14752e-28
3.87197e-28
9.3417e-28
0
8.27488e-29
2.86252e-29
1.69924e-29
9.48382e-29
)
;

boundaryField
{
    movingWall
    {
        type            calculated;
        value           nonuniform List<scalar> 
20
(
0
0
4.58526e-25
0
2.85017e-26
1.95381e-27
3.75336e-27
-1.65987e-27
-2.11425e-27
0
7.71487e-28
7.21478e-28
4.55414e-28
1.90315e-27
3.30811e-27
0
6.23466e-30
2.01893e-28
3.73011e-29
2.17569e-28
)
;
    }
    fixedWalls
    {
        type            calculated;
        value           nonuniform List<scalar> 
60
(
1.60465e-22
1.95544e-22
3.47474e-22
3.10457e-22
1.82917e-22
2.61867e-22
2.54149e-22
5.81954e-23
3.48423e-23
1.29581e-22
7.17605e-23
0
1.03745e-23
4.64274e-24
8.78727e-23
1.73529e-22
1.54108e-22
3.00622e-22
1.54675e-22
7.65124e-23
5.47217e-29
0
0
0
8.14979e-28
3.05193e-28
0
0
2.22575e-28
2.11275e-29
0
0
0
0
0
0
0
2.86659e-28
2.13043e-29
2.13781e-28
0
0
2.65221e-25
0
3.70015e-26
-4.9628e-27
2.71609e-27
3.91505e-28
7.17516e-28
2.58976e-28
7.34684e-28
7.52443e-28
4.2031e-28
6.94923e-28
0
0
4.63024e-29
1.50431e-27
7.34684e-28
0
)
;
    }
    frontAndBack
    {
        type            empty;
    }
}


// ************************************************************************* //
