/*--------------------------------*- C++ -*----------------------------------*\
| =========                 |                                                 |
| \\      /  F ield         | OpenFOAM: The Open Source CFD Toolbox           |
|  \\    /   O peration     | Version:  2506                                  |
|   \\  /    A nd           | Website:  www.openfoam.com                      |
|    \\/     M anipulation  |                                                 |
\*---------------------------------------------------------------------------*/
FoamFile
{
    version     2.0;
    format      ascii;
    arch        "LSB;label=32;scalar=64";
    class       volVectorField;
    location    "7.5";
    object      LambVectorField;
}
// * * * * * * * * * * * * * * * * * * * * * * * * * * * * * * * * * * * * * //

dimensions      [0 1 -2 0 0 0 0];

internalField   nonuniform List<vector> 
400
(
(-1.80253e-24 -1.10995e-11 0)
(-5.32961e-25 1.49371e-11 -0)
(-2.85706e-26 -3.39405e-12 0)
(-1.3463e-27 7.73797e-13 -0)
(-4.46107e-29 -1.09121e-13 0)
(-4.06632e-30 3.81637e-14 -0)
(-3.32474e-31 -1.22322e-14 0)
(-3.12281e-32 -1.9799e-15 0)
(-2.93223e-30 -6.24154e-14 0)
(-5.58837e-30 -5.71259e-14 0)
(-3.53416e-30 -4.64183e-14 0)
(-9.10514e-31 -4.57384e-14 0)
(3.94659e-32 -4.59964e-15 -0)
(-4.16592e-30 -6.32124e-14 0)
(-6.09279e-30 -7.48108e-14 0)
(-3.81249e-32 -4.43647e-14 0)
(9.83134e-31 -5.77924e-14 -0)
(-3.54916e-31 -9.67531e-15 0)
(4.5079e-32 5.65313e-16 0)
(3.43717e-31 1.10771e-14 0)
(-4.61252e-28 3.84826e-13 -0)
(-1.21342e-28 -3.65598e-13 0)
(-1.05218e-30 -5.86833e-14 0)
(-8.21947e-30 -7.7851e-14 0)
(1.69439e-30 -1.0139e-13 -0)
(-5.33379e-30 -1.5119e-13 0)
(-2.04429e-29 -1.4609e-13 0)
(-1.1109e-29 -7.88284e-14 0)
(-2.39931e-30 -2.08516e-14 0)
(2.78818e-31 3.55669e-15 0)
(-2.45557e-30 -3.08881e-14 0)
(7.29703e-30 6.27847e-14 0)
(-9.52085e-32 1.52395e-14 -0)
(-1.69119e-31 4.67535e-15 -0)
(-1.63854e-30 3.09154e-14 -0)
(-6.30098e-31 8.48326e-15 -0)
(5.11762e-32 -3.7129e-16 -0)
(6.8695e-30 -9.73533e-14 -0)
(-2.55933e-31 -1.13507e-14 0)
(2.81255e-31 6.54924e-15 0)
(-8.24473e-25 5.78742e-12 -0)
(-3.72613e-25 -1.19471e-11 0)
(-2.10814e-26 2.90083e-12 -0)
(-9.10184e-28 -5.55649e-13 0)
(-6.59168e-29 1.85353e-13 -0)
(1.08175e-30 1.94645e-14 0)
(-6.43149e-31 7.86977e-14 -0)
(6.55042e-30 8.01271e-14 0)
(4.7329e-31 1.27624e-13 0)
(-1.31175e-29 1.18943e-13 -0)
(-1.06534e-29 1.04936e-13 -0)
(-3.57563e-30 4.73969e-14 -0)
(-1.57868e-30 4.72783e-14 -0)
(-6.63741e-31 1.08424e-13 -0)
(-2.79351e-30 8.35728e-14 -0)
(-1.71034e-30 5.95979e-14 -0)
(-8.2355e-30 9.43317e-14 -0)
(-1.35365e-29 8.5208e-14 -0)
(1.85712e-30 -1.4712e-14 -0)
(1.6203e-31 -1.37975e-14 -0)
(-6.69676e-25 -5.16171e-12 0)
(-3.15034e-25 1.10461e-11 -0)
(-1.6963e-26 -2.49095e-12 0)
(-1.00844e-27 6.99317e-13 -0)
(1.1289e-29 3.14633e-14 0)
(-2.36803e-29 1.81655e-13 -0)
(-1.31746e-29 1.28536e-13 -0)
(-3.3207e-30 5.49208e-14 -0)
(-6.73049e-30 6.14068e-14 -0)
(-6.96188e-30 5.25703e-14 -0)
(-4.90013e-30 5.25724e-14 -0)
(-1.68484e-30 1.45178e-14 -0)
(-8.02463e-31 -2.45662e-14 0)
(-8.7848e-31 -6.77791e-15 0)
(3.88417e-30 3.86699e-14 0)
(9.20352e-31 6.59248e-14 0)
(-2.45526e-31 1.46997e-14 -0)
(-4.86934e-30 3.66016e-14 -0)
(-2.14037e-30 1.91672e-14 -0)
(3.79587e-30 -7.07427e-14 -0)
(-9.76394e-27 5.28903e-13 -0)
(-6.47227e-27 -1.53116e-12 0)
(-3.72492e-28 3.79805e-13 -0)
(-1.53898e-29 -9.7442e-14 0)
(7.50658e-32 -1.18687e-14 -0)
(1.26674e-32 2.27222e-15 0)
(5.45605e-31 -1.87836e-14 -0)
(-2.69535e-31 3.47163e-15 -0)
(1.83969e-30 -2.88519e-14 -0)
(4.20802e-30 -6.99351e-14 -0)
(-4.44434e-30 -4.75398e-14 0)
(-3.84035e-30 -2.66364e-14 0)
(5.65449e-31 6.36762e-15 0)
(2.2936e-30 2.84918e-14 0)
(6.45775e-31 8.61799e-15 0)
(-9.76476e-32 1.71935e-14 -0)
(-1.15545e-30 1.19117e-14 -0)
(5.27377e-31 -4.22589e-15 -0)
(1.96121e-30 -3.58263e-14 -0)
(-1.69045e-30 4.49775e-14 -0)
(-6.54023e-25 5.74332e-12 -0)
(-2.43949e-25 -9.86479e-12 0)
(-1.3464e-26 2.23959e-12 -0)
(-7.58474e-28 -6.07178e-13 0)
(-1.78405e-29 8.45241e-14 -0)
(-2.60194e-30 -1.95803e-14 0)
(-4.29557e-31 2.81373e-14 -0)
(1.7091e-30 -1.151e-14 -0)
(5.68328e-31 -3.31935e-15 -0)
(7.83922e-30 -6.79934e-14 -0)
(3.76084e-30 -1.12655e-13 -0)
(1.98442e-30 -2.72032e-14 -0)
(2.35359e-30 -7.26354e-14 -0)
(-1.17865e-29 -1.05894e-13 0)
(-1.40742e-29 -6.59562e-14 0)
(-2.83489e-30 -1.23921e-14 0)
(1.52593e-30 2.30305e-14 0)
(-1.48205e-32 9.6283e-15 -0)
(-7.60145e-32 2.53161e-15 -0)
(-5.75159e-31 2.14169e-14 -0)
(-1.54668e-24 -9.24772e-12 0)
(-5.39688e-25 1.46554e-11 -0)
(-2.98868e-26 -3.51703e-12 0)
(-1.12502e-27 5.84172e-13 -0)
(-1.64197e-28 -3.36739e-13 0)
(-8.69283e-30 -1.00732e-13 0)
(-1.29729e-29 -9.28749e-14 0)
(4.81272e-30 -6.95916e-14 -0)
(-2.87341e-30 -1.28015e-13 0)
(-1.03233e-29 -8.14204e-14 0)
(4.55911e-31 1.94017e-14 0)
(2.22653e-30 -3.31198e-14 -0)
(-8.89668e-30 -1.06361e-13 0)
(-1.17189e-29 -6.3955e-14 0)
(-8.06201e-30 -4.45183e-14 0)
(-1.09155e-30 -1.26456e-14 0)
(1.18455e-30 3.24531e-14 0)
(-6.95525e-32 -2.11807e-15 0)
(1.90171e-31 3.29695e-15 0)
(2.81442e-33 -2.13501e-14 -0)
(-2.89953e-25 4.12395e-12 -0)
(-9.41517e-26 -6.2871e-12 0)
(-5.29792e-27 1.45396e-12 -0)
(-1.61553e-28 -2.28562e-13 0)
(-2.75933e-29 1.00718e-13 -0)
(5.92772e-31 -2.02223e-14 -0)
(1.24986e-31 -1.74218e-15 -0)
(1.6222e-31 -1.36422e-14 -0)
(-2.97576e-31 -4.60067e-15 0)
(3.0684e-30 8.99411e-14 0)
(-1.82857e-30 8.47401e-14 -0)
(-2.99187e-33 2.24076e-14 -0)
(2.82513e-30 1.11242e-13 0)
(-2.67645e-30 9.43986e-14 -0)
(-1.04661e-29 9.9263e-14 -0)
(-1.03447e-29 4.97744e-14 -0)
(5.409e-30 -8.85546e-14 -0)
(-1.48223e-29 -1.09298e-13 0)
(2.14428e-30 9.80247e-15 0)
(9.63543e-31 2.56338e-14 0)
(-3.13676e-25 4.79923e-12 -0)
(-8.1212e-26 -5.86637e-12 0)
(-5.02452e-27 1.45919e-12 -0)
(-1.09285e-28 -1.80037e-13 0)
(-3.51803e-29 1.22265e-13 -0)
(-4.51523e-30 6.14039e-14 -0)
(-4.31363e-30 4.86724e-14 -0)
(-1.92741e-32 1.06158e-15 -0)
(-6.72034e-30 6.77169e-14 -0)
(1.24003e-31 -8.09291e-16 -0)
(4.77411e-30 -5.23771e-14 -0)
(-4.18168e-30 -4.20285e-14 0)
(-5.06447e-31 -8.71905e-15 0)
(6.48161e-31 -7.68294e-15 -0)
(1.18302e-29 -8.68999e-14 -0)
(3.78675e-30 -1.32793e-13 -0)
(-1.15851e-29 -1.07681e-13 0)
(-7.79554e-30 -3.31529e-14 0)
(4.14091e-30 2.46386e-14 0)
(-4.81226e-31 4.27869e-14 -0)
(-1.57016e-24 -1.01306e-11 0)
(-4.83016e-25 1.41356e-11 -0)
(-2.59255e-26 -3.26358e-12 0)
(-1.36705e-27 7.57194e-13 -0)
(-5.11091e-29 -1.37418e-13 0)
(-1.09294e-29 6.82312e-14 -0)
(-1.893e-30 4.81208e-14 -0)
(-5.70474e-30 5.74562e-14 -0)
(9.84826e-31 -1.37163e-14 -0)
(-2.38053e-30 -6.28526e-14 0)
(-7.74999e-31 -5.29884e-14 0)
(-1.08774e-31 -4.23943e-15 0)
(1.73396e-31 3.04097e-15 0)
(2.41784e-31 -5.08795e-14 -0)
(-3.19005e-31 -1.3452e-14 0)
(-4.65373e-30 -3.5862e-14 0)
(6.88109e-31 6.18335e-15 0)
(1.07512e-30 1.58259e-14 0)
(-6.13781e-31 1.30662e-14 -0)
(6.88143e-31 -1.09703e-14 -0)
(-1.97907e-24 1.19463e-11 -0)
(-5.61713e-25 -1.54135e-11 0)
(-2.9189e-26 3.52684e-12 -0)
(-1.63744e-27 -8.23824e-13 0)
(-8.2835e-29 2.68046e-13 -0)
(3.02668e-30 2.516e-14 0)
(-5.84625e-31 3.15476e-14 -0)
(5.61093e-30 7.39528e-14 0)
(4.63075e-30 8.40549e-14 0)
(5.76347e-30 1.18897e-13 0)
(-6.24115e-30 1.25633e-13 -0)
(-6.35233e-30 5.13706e-14 -0)
(-8.29728e-31 3.89858e-14 -0)
(2.91062e-30 1.01817e-13 0)
(2.35631e-30 5.26559e-14 0)
(3.69971e-30 8.38385e-14 0)
(1.84571e-30 9.45747e-14 0)
(-8.84817e-30 1.00017e-13 -0)
(-4.01667e-30 2.39796e-14 -0)
(2.83636e-30 -4.95766e-14 -0)
(-7.63902e-25 -8.37954e-12 0)
(-1.69115e-25 8.64392e-12 -0)
(-9.42532e-27 -2.11684e-12 0)
(-3.56487e-28 3.22095e-13 -0)
(-3.19117e-29 -2.16516e-13 0)
(3.21976e-30 -1.24742e-13 -0)
(-5.95314e-30 -1.50488e-13 0)
(-7.4466e-30 -6.01424e-14 0)
(-7.3193e-30 -7.40208e-14 0)
(-6.71698e-31 -1.32034e-14 0)
(2.20528e-30 -5.49471e-14 -0)
(-9.54733e-30 -1.63923e-13 0)
(-3.37414e-29 -1.38376e-13 0)
(-3.75479e-29 -1.04941e-13 0)
(-5.71024e-30 -2.73159e-14 0)
(8.95399e-31 1.00766e-14 0)
(3.72766e-30 3.44267e-14 0)
(6.93938e-31 4.43629e-14 0)
(-1.49505e-31 2.32512e-15 -0)
(5.47146e-32 -7.19089e-15 -0)
(-2.86918e-27 -2.08565e-13 0)
(-3.89466e-27 1.19155e-12 -0)
(-1.01262e-28 -2.08368e-13 0)
(-5.47833e-29 1.47376e-13 -0)
(-1.27192e-30 7.28362e-15 -0)
(1.2069e-30 -6.95577e-15 -0)
(-4.46349e-30 4.24812e-14 -0)
(2.32063e-30 -4.12763e-14 -0)
(-4.45164e-31 -1.21487e-14 0)
(-2.16333e-30 -3.31466e-14 0)
(-3.61792e-31 -3.72756e-15 0)
(2.81105e-30 2.74139e-14 0)
(-1.69316e-31 -1.8018e-15 0)
(6.33789e-31 5.25708e-15 0)
(2.73237e-30 6.59998e-14 0)
(6.83473e-33 2.56734e-15 0)
(-4.86846e-31 -3.09574e-14 0)
(-1.27097e-30 -3.08595e-14 0)
(-1.39353e-30 -2.61592e-14 0)
(2.6968e-31 8.49985e-15 0)
(-8.3005e-25 8.09912e-12 -0)
(-2.08202e-25 -9.44765e-12 0)
(-1.24554e-26 2.3503e-12 -0)
(-4.26438e-28 -4.37879e-13 0)
(-5.92441e-29 1.56485e-13 -0)
(-3.88143e-30 7.94081e-14 -0)
(-4.62602e-30 5.22886e-14 -0)
(-1.15104e-30 3.88018e-14 -0)
(9.32246e-31 1.42084e-14 0)
(4.16914e-30 4.19843e-14 0)
(8.13732e-30 4.33135e-14 0)
(1.94915e-29 9.35885e-14 0)
(9.06315e-30 1.3914e-13 0)
(-1.28839e-29 1.30227e-13 -0)
(-7.63672e-30 4.99356e-14 -0)
(-1.98881e-30 3.53948e-14 -0)
(6.1694e-31 1.7516e-14 0)
(-2.85935e-32 -7.20221e-16 0)
(4.05745e-32 9.56411e-16 0)
(2.18675e-31 7.25606e-15 0)
(-1.64248e-24 -1.06575e-11 0)
(-4.70855e-25 1.40782e-11 -0)
(-2.51677e-26 -3.29354e-12 0)
(-1.27794e-27 6.84991e-13 -0)
(-7.66922e-29 -3.07355e-13 0)
(4.5019e-30 -3.05555e-14 -0)
(-9.56175e-31 -7.368e-14 0)
(-2.87192e-30 -6.06355e-14 0)
(-6.64067e-30 -8.59846e-14 0)
(-5.5205e-30 -5.86925e-14 0)
(-1.45682e-29 -1.19357e-13 0)
(-1.83229e-29 -9.00717e-14 0)
(-8.98604e-30 -4.2868e-14 0)
(-3.50907e-30 -3.89877e-14 0)
(-3.29731e-30 -5.74473e-14 0)
(-7.82818e-30 -6.3968e-14 0)
(-3.54028e-30 -2.28441e-14 0)
(7.06327e-31 8.85488e-15 0)
(2.76874e-31 4.1681e-15 0)
(3.98047e-31 1.04513e-14 0)
(-7.20239e-25 6.40721e-12 -0)
(-2.4862e-25 -1.00423e-11 0)
(-1.32168e-26 2.29713e-12 -0)
(-6.6768e-28 -5.36791e-13 0)
(-3.58432e-29 9.29282e-14 -0)
(-5.49008e-30 -1.26203e-13 0)
(-3.47663e-30 -5.50401e-14 0)
(-1.05841e-31 -2.04317e-15 0)
(-6.52189e-31 -7.80158e-15 0)
(-7.51208e-30 -5.78662e-14 0)
(7.54759e-30 6.28137e-14 0)
(2.75628e-30 6.29543e-14 0)
(8.58569e-32 2.62426e-15 0)
(-1.38429e-31 -7.89228e-15 0)
(-9.54733e-30 -8.55193e-14 0)
(1.11775e-30 1.87601e-14 0)
(-1.02699e-30 1.35198e-14 -0)
(-1.07616e-30 1.42318e-14 -0)
(-6.33013e-31 -1.19956e-14 0)
(4.30571e-31 9.71094e-15 0)
(2.34469e-26 -1.22273e-12 -0)
(-5.29921e-27 -1.2329e-12 0)
(-1.17492e-28 1.32943e-13 -0)
(-1.86151e-29 -7.20921e-14 0)
(3.15312e-30 -1.93613e-14 -0)
(6.24224e-30 -6.91473e-14 -0)
(5.84645e-31 -4.33559e-14 -0)
(-6.56524e-30 -9.08885e-14 0)
(-6.69025e-30 -8.13415e-14 0)
(-1.95758e-30 -2.70021e-14 0)
(-4.79168e-30 -5.89966e-14 0)
(-7.71098e-30 -6.40648e-14 0)
(-9.83348e-30 -5.47016e-14 0)
(1.48241e-30 1.1833e-14 0)
(6.30459e-30 1.02621e-13 0)
(-4.53323e-30 5.16405e-14 -0)
(1.13074e-30 -6.14804e-15 -0)
(2.73902e-30 -1.04129e-13 -0)
(-2.60291e-31 -5.88625e-15 0)
(2.49979e-31 7.67786e-15 0)
(-4.99596e-25 -3.97973e-12 0)
(-2.83274e-25 1.0418e-11 -0)
(-1.54626e-26 -2.39827e-12 0)
(-6.87636e-28 5.24598e-13 -0)
(-2.79925e-29 -7.2093e-14 0)
(-1.40659e-30 2.94551e-14 -0)
(-7.28812e-30 -7.77547e-14 0)
(1.2552e-30 6.68753e-15 0)
(2.28614e-30 8.51232e-14 0)
(-1.23626e-30 1.01802e-14 -0)
(2.82343e-30 -3.76734e-14 -0)
(1.31472e-30 -8.34523e-14 -0)
(-4.13112e-32 7.71115e-16 -0)
(1.54985e-30 -6.60486e-14 -0)
(1.46222e-30 2.25612e-14 0)
(-4.47903e-31 -2.03845e-14 0)
(6.2531e-33 -2.61141e-15 -0)
(1.39581e-31 2.90268e-15 0)
(-2.34172e-31 7.45264e-15 -0)
(-5.63665e-31 2.1319e-14 -0)
(-2.54763e-25 4.19795e-12 -0)
(-6.67892e-26 -5.35434e-12 0)
(-4.20589e-27 1.36632e-12 -0)
(-1.63312e-28 -2.30672e-13 0)
(9.41231e-30 2.26217e-13 0)
(1.44106e-29 1.99821e-13 0)
(-1.03629e-29 1.74906e-13 -0)
(-8.3383e-30 1.64672e-13 -0)
(-1.11338e-29 1.39751e-13 -0)
(-1.26978e-29 1.36698e-13 -0)
(-1.3139e-29 1.43753e-13 -0)
(-3.6812e-29 2.10151e-13 -0)
(-3.30336e-29 1.11767e-13 -0)
(-1.31854e-29 6.31989e-14 -0)
(2.21492e-30 -1.93618e-14 -0)
(2.98972e-31 -1.9912e-14 -0)
(-3.46819e-31 -4.09352e-15 0)
(1.77119e-30 6.83316e-14 0)
(-2.52329e-31 4.46675e-15 -0)
(1.41047e-31 -7.52375e-15 -0)
(-3.25404e-25 4.29891e-12 -0)
(-1.09503e-25 -6.88685e-12 0)
(-5.37241e-27 1.39743e-12 -0)
(-3.14772e-28 -3.73907e-13 0)
(-4.90136e-31 4.64834e-15 -0)
(8.68968e-31 -4.88531e-14 -0)
(2.50858e-30 -1.5776e-14 -0)
(1.25177e-29 -9.5498e-14 -0)
(1.20718e-30 -7.02482e-14 -0)
(-1.70748e-30 -5.82711e-14 0)
(-1.20978e-30 -5.16442e-14 0)
(-1.85712e-31 -5.09704e-14 0)
(4.56548e-31 -5.08884e-14 -0)
(3.79128e-31 -1.282e-14 -0)
(2.85236e-30 -1.87875e-14 -0)
(1.78216e-30 -1.58065e-14 -0)
(-8.75992e-32 -1.40331e-14 0)
(-2.48964e-32 -9.02633e-16 0)
(1.20088e-32 7.86502e-16 0)
(-4.65449e-31 -2.36065e-14 0)
)
;

boundaryField
{
    movingWall
    {
        type            calculated;
        value           nonuniform List<vector> 
20
(
(0 1.1042e-11 -0)
(0 -8.82813e-12 -0)
(0 1.2838e-12 -0)
(0 -5.51542e-13 -0)
(0 -2.24899e-13 -0)
(0 -3.49914e-13 -0)
(0 -2.55124e-13 -0)
(0 -3.25045e-13 -0)
(0 -1.93674e-13 -0)
(0 -1.81697e-13 -0)
(0 -2.63888e-13 -0)
(0 -2.18805e-13 -0)
(0 -1.29905e-13 -0)
(0 -1.18942e-13 -0)
(0 -3.60913e-14 -0)
(0 -1.58065e-14 -0)
(0 -1.40331e-14 -0)
(0 8.79152e-14 -0)
(0 7.86502e-16 -0)
(0 -4.09104e-14 -0)
)
;
    }
    fixedWalls
    {
        type            calculated;
        value           nonuniform List<vector> 
60
(
(0 -6.33866e-11 -0)
(0 7.77595e-13 -0)
(0 5.16442e-11 -0)
(0 -4.69355e-11 -0)
(0 6.48983e-12 -0)
(0 4.23789e-11 -0)
(0 -6.31051e-11 -0)
(0 2.67143e-11 -0)
(0 2.57915e-11 -0)
(0 -6.00451e-11 -0)
(0 6.52898e-11 -0)
(0 -3.76848e-11 -0)
(0 -4.66245e-12 -0)
(0 4.10488e-11 -0)
(0 -6.02366e-11 -0)
(0 4.26062e-11 -0)
(0 4.95986e-12 -0)
(0 -4.43593e-11 -0)
(0 2.36516e-11 -0)
(0 2.85973e-11 -0)
(0 1.24118e-14 -0)
(0 1.71779e-14 -0)
(0 -4.69737e-15 -0)
(0 -7.56731e-14 -0)
(0 3.91764e-14 -0)
(0 1.63629e-14 -0)
(0 -2.71578e-14 -0)
(0 1.50355e-14 -0)
(0 2.26062e-14 -0)
(0 -2.50912e-14 -0)
(0 -4.99897e-14 -0)
(0 -3.04355e-15 -0)
(0 1.2691e-14 -0)
(0 1.20548e-14 -0)
(0 1.52344e-14 -0)
(0 1.77355e-14 -0)
(0 1.30233e-14 -0)
(0 1.65292e-14 -0)
(0 -7.49877e-15 -0)
(0 -1.92183e-14 -0)
(0 -2.031e-11 -0)
(0 1.77071e-11 -0)
(0 -3.39405e-12 -0)
(0 1.02295e-12 -0)
(0 5.87133e-14 -0)
(0 2.15799e-13 -0)
(0 2.09812e-13 -0)
(0 1.75656e-13 -0)
(0 3.62036e-14 -0)
(0 8.5902e-14 -0)
(0 7.79185e-15 -0)
(0 -8.03461e-14 -0)
(0 8.42182e-14 -0)
(0 -9.00229e-15 -0)
(0 6.50441e-15 -0)
(0 9.84542e-15 -0)
(0 -3.58233e-15 -0)
(0 1.23551e-13 -0)
(0 5.65313e-16 -0)
(0 5.5486e-14 -0)
)
;
    }
    frontAndBack
    {
        type            empty;
    }
}


// ************************************************************************* //
