/*--------------------------------*- C++ -*----------------------------------*\
| =========                 |                                                 |
| \\      /  F ield         | OpenFOAM: The Open Source CFD Toolbox           |
|  \\    /   O peration     | Version:  2506                                  |
|   \\  /    A nd           | Website:  www.openfoam.com                      |
|    \\/     M anipulation  |                                                 |
\*---------------------------------------------------------------------------*/
FoamFile
{
    version     2.0;
    format      ascii;
    arch        "LSB;label=32;scalar=64";
    class       volVectorField;
    location    "7.5";
    object      momentum1:momentum;
}
// * * * * * * * * * * * * * * * * * * * * * * * * * * * * * * * * * * * * * //

dimensions      [1 1 -1 0 0 0 0];

internalField   nonuniform List<vector> 
400
(
(-2.5e-07 4.05992e-20 0)
(-2.5e-07 -8.9201e-21 0)
(-2.5e-07 2.10446e-21 0)
(-2.5e-07 -4.34966e-22 0)
(-2.5e-07 1.02204e-22 0)
(-2.5e-07 -2.66374e-23 0)
(-2.5e-07 6.79506e-24 0)
(-2.5e-07 3.94315e-24 0)
(-2.5e-07 1.17448e-23 0)
(-2.5e-07 2.44564e-23 0)
(-2.5e-07 1.90343e-23 0)
(-2.5e-07 4.97675e-24 0)
(-2.5e-07 -2.14505e-24 0)
(-2.5e-07 1.64759e-23 0)
(-2.5e-07 2.03607e-23 0)
(-2.5e-07 2.14838e-25 0)
(-2.5e-07 -4.25286e-24 0)
(-2.5e-07 9.17065e-24 0)
(-2.5e-07 1.99354e-23 0)
(-2.5e-07 7.75737e-24 0)
(-2.5e-07 -2.9965e-22 0)
(-2.5e-07 8.29746e-23 0)
(-2.5e-07 4.48248e-24 0)
(-2.5e-07 2.63949e-23 0)
(-2.5e-07 -4.17788e-24 0)
(-2.5e-07 8.81969e-24 0)
(-2.5e-07 3.49835e-23 0)
(-2.5e-07 3.52318e-23 0)
(-2.5e-07 2.87665e-23 0)
(-2.5e-07 1.95981e-23 0)
(-2.5e-07 1.98747e-23 0)
(-2.5e-07 2.90557e-23 0)
(-2.5e-07 -1.56187e-24 0)
(-2.5e-07 -9.04312e-24 0)
(-2.5e-07 -1.32502e-23 0)
(-2.5e-07 -1.85689e-23 0)
(-2.5e-07 -3.44584e-23 0)
(-2.5e-07 -1.76406e-23 0)
(-2.5e-07 5.63694e-24 0)
(-2.5e-07 1.07362e-23 0)
(-2.5e-07 -3.56149e-20 0)
(-2.5e-07 7.79712e-21 0)
(-2.5e-07 -1.81684e-21 0)
(-2.5e-07 4.09514e-22 0)
(-2.5e-07 -8.89071e-23 0)
(-2.5e-07 1.38939e-23 0)
(-2.5e-07 -2.0431e-24 0)
(-2.5e-07 2.04376e-23 0)
(-2.5e-07 9.27121e-25 0)
(-2.5e-07 -2.75709e-23 0)
(-2.5e-07 -2.53808e-23 0)
(-2.5e-07 -1.886e-23 0)
(-2.5e-07 -8.34778e-24 0)
(-2.5e-07 -1.53043e-24 0)
(-2.5e-07 -8.35653e-24 0)
(-2.5e-07 -7.17452e-24 0)
(-2.5e-07 -2.18259e-23 0)
(-2.5e-07 -3.97159e-23 0)
(-2.5e-07 -3.15579e-23 0)
(-2.5e-07 -2.93586e-24 0)
(-2.5e-07 3.24348e-20 0)
(-2.5e-07 -7.12997e-21 0)
(-2.5e-07 1.70247e-21 0)
(-2.5e-07 -3.60507e-22 0)
(-2.5e-07 8.96993e-23 0)
(-2.5e-07 -3.25897e-23 0)
(-2.5e-07 -2.56245e-23 0)
(-2.5e-07 -1.51158e-23 0)
(-2.5e-07 -2.74013e-23 0)
(-2.5e-07 -3.31075e-23 0)
(-2.5e-07 -2.33018e-23 0)
(-2.5e-07 -2.90133e-23 0)
(-2.5e-07 8.16632e-24 0)
(-2.5e-07 3.24023e-23 0)
(-2.5e-07 2.51111e-23 0)
(-2.5e-07 3.49016e-24 0)
(-2.5e-07 -4.17571e-24 0)
(-2.5e-07 -3.3259e-23 0)
(-2.5e-07 -2.79171e-23 0)
(-2.5e-07 -1.34144e-23 0)
(-2.5e-07 -4.61518e-21 0)
(-2.5e-07 1.05676e-21 0)
(-2.5e-07 -2.45186e-22 0)
(-2.5e-07 3.94845e-23 0)
(-2.5e-07 -1.58117e-24 0)
(-2.5e-07 1.39373e-24 0)
(-2.5e-07 -7.26171e-24 0)
(-2.5e-07 -1.94098e-23 0)
(-2.5e-07 -1.59408e-23 0)
(-2.5e-07 -1.50426e-23 0)
(-2.5e-07 2.33717e-23 0)
(-2.5e-07 3.60442e-23 0)
(-2.5e-07 2.22002e-23 0)
(-2.5e-07 2.01251e-23 0)
(-2.5e-07 1.87334e-23 0)
(-2.5e-07 -1.41984e-24 0)
(-2.5e-07 -2.42503e-23 0)
(-2.5e-07 -3.11992e-23 0)
(-2.5e-07 -1.36856e-23 0)
(-2.5e-07 -9.39607e-24 0)
(-2.5e-07 -2.84689e-20 0)
(-2.5e-07 6.18233e-21 0)
(-2.5e-07 -1.50295e-21 0)
(-2.5e-07 3.12294e-22 0)
(-2.5e-07 -5.27673e-23 0)
(-2.5e-07 3.32214e-23 0)
(-2.5e-07 -3.81661e-24 0)
(-2.5e-07 -3.71219e-23 0)
(-2.5e-07 -4.28041e-23 0)
(-2.5e-07 -2.88235e-23 0)
(-2.5e-07 -8.34594e-24 0)
(-2.5e-07 -1.82371e-23 0)
(-2.5e-07 -8.10069e-24 0)
(-2.5e-07 2.78262e-23 0)
(-2.5e-07 5.33466e-23 0)
(-2.5e-07 5.71914e-23 0)
(-2.5e-07 1.65642e-23 0)
(-2.5e-07 -3.84815e-25 0)
(-2.5e-07 -7.50654e-24 0)
(-2.5e-07 -6.71384e-24 0)
(-2.5e-07 4.18124e-20 0)
(-2.5e-07 -9.20628e-21 0)
(-2.5e-07 2.12443e-21 0)
(-2.5e-07 -4.81459e-22 0)
(-2.5e-07 1.21903e-22 0)
(-2.5e-07 2.15741e-23 0)
(-2.5e-07 3.49204e-23 0)
(-2.5e-07 -1.72892e-23 0)
(-2.5e-07 5.61147e-24 0)
(-2.5e-07 3.16976e-23 0)
(-2.5e-07 5.87463e-24 0)
(-2.5e-07 -1.68066e-23 0)
(-2.5e-07 2.09114e-23 0)
(-2.5e-07 4.58091e-23 0)
(-2.5e-07 4.52736e-23 0)
(-2.5e-07 2.15796e-23 0)
(-2.5e-07 9.12508e-24 0)
(-2.5e-07 8.20942e-24 0)
(-2.5e-07 1.44202e-23 0)
(-2.5e-07 -3.29555e-26 0)
(-2.5e-07 -1.75774e-20 0)
(-2.5e-07 3.74384e-21 0)
(-2.5e-07 -9.10947e-22 0)
(-2.5e-07 1.76705e-22 0)
(-2.5e-07 -6.84911e-23 0)
(-2.5e-07 -7.3282e-24 0)
(-2.5e-07 -1.79353e-23 0)
(-2.5e-07 -2.97275e-24 0)
(-2.5e-07 1.61702e-23 0)
(-2.5e-07 8.52893e-24 0)
(-2.5e-07 -5.39465e-24 0)
(-2.5e-07 -3.33801e-26 0)
(-2.5e-07 6.34906e-24 0)
(-2.5e-07 -7.08816e-24 0)
(-2.5e-07 -2.63595e-23 0)
(-2.5e-07 -5.19578e-23 0)
(-2.5e-07 -1.52703e-23 0)
(-2.5e-07 3.39034e-23 0)
(-2.5e-07 5.46872e-23 0)
(-2.5e-07 9.3972e-24 0)
(-2.5e-07 -1.63399e-20 0)
(-2.5e-07 3.46092e-21 0)
(-2.5e-07 -8.6084e-22 0)
(-2.5e-07 1.51754e-22 0)
(-2.5e-07 -7.19345e-23 0)
(-2.5e-07 -1.83833e-23 0)
(-2.5e-07 -2.21565e-23 0)
(-2.5e-07 -4.53898e-24 0)
(-2.5e-07 -2.48104e-23 0)
(-2.5e-07 -3.8306e-23 0)
(-2.5e-07 -2.27872e-23 0)
(-2.5e-07 2.48741e-23 0)
(-2.5e-07 1.45213e-23 0)
(-2.5e-07 -2.10909e-23 0)
(-2.5e-07 -3.4034e-23 0)
(-2.5e-07 -7.12908e-24 0)
(-2.5e-07 2.68969e-23 0)
(-2.5e-07 5.87849e-23 0)
(-2.5e-07 4.20164e-23 0)
(-2.5e-07 -2.81176e-24 0)
(-2.5e-07 3.87479e-20 0)
(-2.5e-07 -8.54255e-21 0)
(-2.5e-07 1.98597e-21 0)
(-2.5e-07 -4.51354e-22 0)
(-2.5e-07 9.29807e-23 0)
(-2.5e-07 -4.00455e-23 0)
(-2.5e-07 -9.83463e-24 0)
(-2.5e-07 -2.48221e-23 0)
(-2.5e-07 -1.79499e-23 0)
(-2.5e-07 9.46871e-24 0)
(-2.5e-07 3.65646e-24 0)
(-2.5e-07 6.4144e-24 0)
(-2.5e-07 1.4255e-23 0)
(-2.5e-07 -1.18802e-24 0)
(-2.5e-07 5.92859e-24 0)
(-2.5e-07 3.24419e-23 0)
(-2.5e-07 2.7821e-23 0)
(-2.5e-07 1.69835e-23 0)
(-2.5e-07 -1.17437e-23 0)
(-2.5e-07 -1.5682e-23 0)
(-2.5e-07 -4.1416e-20 0)
(-2.5e-07 9.11073e-21 0)
(-2.5e-07 -2.06906e-21 0)
(-2.5e-07 4.96901e-22 0)
(-2.5e-07 -7.72582e-23 0)
(-2.5e-07 3.00744e-23 0)
(-2.5e-07 -4.63287e-24 0)
(-2.5e-07 1.89679e-23 0)
(-2.5e-07 1.3773e-23 0)
(-2.5e-07 1.21186e-23 0)
(-2.5e-07 -1.24194e-23 0)
(-2.5e-07 -3.09142e-23 0)
(-2.5e-07 -5.32071e-24 0)
(-2.5e-07 7.14669e-24 0)
(-2.5e-07 1.11873e-23 0)
(-2.5e-07 1.10323e-23 0)
(-2.5e-07 4.87898e-24 0)
(-2.5e-07 -2.21166e-23 0)
(-2.5e-07 -4.18759e-23 0)
(-2.5e-07 -1.43029e-23 0)
(-2.5e-07 2.27907e-20 0)
(-2.5e-07 -4.89116e-21 0)
(-2.5e-07 1.11314e-21 0)
(-2.5e-07 -2.76693e-22 0)
(-2.5e-07 3.68467e-23 0)
(-2.5e-07 -6.45282e-24 0)
(-2.5e-07 9.88973e-24 0)
(-2.5e-07 3.0954e-23 0)
(-2.5e-07 2.47204e-23 0)
(-2.5e-07 1.27183e-23 0)
(-2.5e-07 -1.00337e-23 0)
(-2.5e-07 1.45607e-23 0)
(-2.5e-07 6.09596e-23 0)
(-2.5e-07 8.94503e-23 0)
(-2.5e-07 5.22611e-23 0)
(-2.5e-07 2.22147e-23 0)
(-2.5e-07 2.70695e-23 0)
(-2.5e-07 3.91058e-24 0)
(-2.5e-07 -1.6075e-23 0)
(-2.5e-07 -1.90222e-24 0)
(-2.5e-07 3.43919e-21 0)
(-2.5e-07 -8.17138e-22 0)
(-2.5e-07 1.21494e-22 0)
(-2.5e-07 -9.29313e-23 0)
(-2.5e-07 -4.36569e-23 0)
(-2.5e-07 -4.33778e-23 0)
(-2.5e-07 -2.62675e-23 0)
(-2.5e-07 -1.40554e-23 0)
(-2.5e-07 9.16072e-24 0)
(-2.5e-07 1.63164e-23 0)
(-2.5e-07 2.42647e-23 0)
(-2.5e-07 2.56352e-23 0)
(-2.5e-07 2.34926e-23 0)
(-2.5e-07 3.01398e-23 0)
(-2.5e-07 1.03499e-23 0)
(-2.5e-07 6.65544e-25 0)
(-2.5e-07 3.93158e-24 0)
(-2.5e-07 1.02964e-23 0)
(-2.5e-07 1.33177e-23 0)
(-2.5e-07 7.93189e-24 0)
(-2.5e-07 -2.56216e-20 0)
(-2.5e-07 5.50936e-21 0)
(-2.5e-07 -1.32487e-21 0)
(-2.5e-07 2.43468e-22 0)
(-2.5e-07 -9.4648e-23 0)
(-2.5e-07 -1.22199e-23 0)
(-2.5e-07 -2.21177e-23 0)
(-2.5e-07 -7.41615e-24 0)
(-2.5e-07 1.64031e-23 0)
(-2.5e-07 2.48256e-23 0)
(-2.5e-07 4.69676e-23 0)
(-2.5e-07 5.20671e-23 0)
(-2.5e-07 1.62842e-23 0)
(-2.5e-07 -2.47335e-23 0)
(-2.5e-07 -3.82328e-23 0)
(-2.5e-07 -1.40473e-23 0)
(-2.5e-07 8.80537e-24 0)
(-2.5e-07 9.92525e-24 0)
(-2.5e-07 1.06059e-23 0)
(-2.5e-07 7.53422e-24 0)
(-2.5e-07 3.85288e-20 0)
(-2.5e-07 -8.36145e-21 0)
(-2.5e-07 1.91038e-21 0)
(-2.5e-07 -4.66408e-22 0)
(-2.5e-07 6.23808e-23 0)
(-2.5e-07 -3.68338e-23 0)
(-2.5e-07 3.24435e-24 0)
(-2.5e-07 1.18409e-23 0)
(-2.5e-07 1.93077e-23 0)
(-2.5e-07 2.35145e-23 0)
(-2.5e-07 3.05138e-23 0)
(-2.5e-07 5.08563e-23 0)
(-2.5e-07 5.24053e-23 0)
(-2.5e-07 2.25012e-23 0)
(-2.5e-07 1.43493e-23 0)
(-2.5e-07 3.05941e-23 0)
(-2.5e-07 3.87439e-23 0)
(-2.5e-07 1.99417e-23 0)
(-2.5e-07 1.66067e-23 0)
(-2.5e-07 9.52148e-24 0)
(-2.5e-07 -2.81027e-20 0)
(-2.5e-07 6.18931e-21 0)
(-2.5e-07 -1.4384e-21 0)
(-2.5e-07 3.10959e-22 0)
(-2.5e-07 -9.6427e-23 0)
(-2.5e-07 1.08755e-23 0)
(-2.5e-07 1.57913e-23 0)
(-2.5e-07 1.29506e-23 0)
(-2.5e-07 2.08993e-23 0)
(-2.5e-07 3.24545e-23 0)
(-2.5e-07 3.00396e-23 0)
(-2.5e-07 1.09456e-23 0)
(-2.5e-07 8.17916e-24 0)
(-2.5e-07 4.38494e-24 0)
(-2.5e-07 2.79099e-23 0)
(-2.5e-07 1.48953e-23 0)
(-2.5e-07 -1.89905e-23 0)
(-2.5e-07 -1.89042e-23 0)
(-2.5e-07 1.31927e-23 0)
(-2.5e-07 1.10847e-23 0)
(-2.5e-07 -4.79398e-21 0)
(-2.5e-07 1.07454e-21 0)
(-2.5e-07 -2.20944e-22 0)
(-2.5e-07 6.45533e-23 0)
(-2.5e-07 -4.07142e-23 0)
(-2.5e-07 -2.25686e-23 0)
(-2.5e-07 -3.3712e-24 0)
(-2.5e-07 1.80585e-23 0)
(-2.5e-07 2.05622e-23 0)
(-2.5e-07 1.81243e-23 0)
(-2.5e-07 2.03049e-23 0)
(-2.5e-07 3.00906e-23 0)
(-2.5e-07 4.49415e-23 0)
(-2.5e-07 3.13192e-23 0)
(-2.5e-07 1.53589e-23 0)
(-2.5e-07 -2.19461e-23 0)
(-2.5e-07 -4.59797e-23 0)
(-2.5e-07 -6.57603e-24 0)
(-2.5e-07 1.10551e-23 0)
(-2.5e-07 8.13959e-24 0)
(-2.5e-07 3.13838e-20 0)
(-2.5e-07 -6.79771e-21 0)
(-2.5e-07 1.61185e-21 0)
(-2.5e-07 -3.27696e-22 0)
(-2.5e-07 9.70709e-23 0)
(-2.5e-07 -1.19384e-23 0)
(-2.5e-07 2.3433e-23 0)
(-2.5e-07 4.69231e-23 0)
(-2.5e-07 6.71423e-24 0)
(-2.5e-07 -3.03595e-23 0)
(-2.5e-07 -1.87362e-23 0)
(-2.5e-07 -3.93855e-24 0)
(-2.5e-07 -1.33933e-23 0)
(-2.5e-07 -5.86634e-24 0)
(-2.5e-07 1.62028e-23 0)
(-2.5e-07 5.49318e-24 0)
(-2.5e-07 -5.98633e-25 0)
(-2.5e-07 1.20217e-23 0)
(-2.5e-07 -7.85534e-24 0)
(-2.5e-07 -6.6099e-24 0)
(-2.5e-07 -1.51719e-20 0)
(-2.5e-07 3.11846e-21 0)
(-2.5e-07 -7.69566e-22 0)
(-2.5e-07 1.76996e-22 0)
(-2.5e-07 1.04019e-23 0)
(-2.5e-07 1.80294e-23 0)
(-2.5e-07 -1.48122e-23 0)
(-2.5e-07 -1.26589e-23 0)
(-2.5e-07 -1.99172e-23 0)
(-2.5e-07 -2.32223e-23 0)
(-2.5e-07 -2.285e-23 0)
(-2.5e-07 -4.37922e-23 0)
(-2.5e-07 -7.38898e-23 0)
(-2.5e-07 -5.21582e-23 0)
(-2.5e-07 -2.8599e-23 0)
(-2.5e-07 -3.75366e-24 0)
(-2.5e-07 2.1181e-23 0)
(-2.5e-07 6.48014e-24 0)
(-2.5e-07 -1.41226e-23 0)
(-2.5e-07 -4.68673e-24 0)
(-2.5e-07 -1.89236e-20 0)
(-2.5e-07 3.97508e-21 0)
(-2.5e-07 -9.61127e-22 0)
(-2.5e-07 2.10462e-22 0)
(-2.5e-07 -2.63608e-23 0)
(-2.5e-07 -4.44684e-24 0)
(-2.5e-07 -3.97533e-23 0)
(-2.5e-07 -3.27696e-23 0)
(-2.5e-07 -4.29612e-24 0)
(-2.5e-07 7.32558e-24 0)
(-2.5e-07 5.85632e-24 0)
(-2.5e-07 9.10881e-25 0)
(-2.5e-07 -2.24289e-24 0)
(-2.5e-07 -7.39331e-24 0)
(-2.5e-07 -3.79555e-23 0)
(-2.5e-07 -2.81872e-23 0)
(-2.5e-07 1.56058e-24 0)
(-2.5e-07 6.8955e-24 0)
(-2.5e-07 3.81716e-24 0)
(-2.5e-07 4.92925e-24 0)
)
;

boundaryField
{
    movingWall
    {
        type            calculated;
        value           uniform (0 0 0);
    }
    fixedWalls
    {
        type            calculated;
        value           uniform (0 0 0);
    }
    frontAndBack
    {
        type            empty;
    }
}


// ************************************************************************* //
