/*--------------------------------*- C++ -*----------------------------------*\
| =========                 |                                                 |
| \\      /  F ield         | OpenFOAM: The Open Source CFD Toolbox           |
|  \\    /   O peration     | Version:  2506                                  |
|   \\  /    A nd           | Website:  www.openfoam.com                      |
|    \\/     M anipulation  |                                                 |
\*---------------------------------------------------------------------------*/
FoamFile
{
    version     2.0;
    format      ascii;
    arch        "LSB;label=32;scalar=64";
    class       volScalarField;
    location    "7.5";
    object      norm_k_field;
}
// * * * * * * * * * * * * * * * * * * * * * * * * * * * * * * * * * * * * * //

dimensions      [0 0 0 0 0 0 0];

internalField   nonuniform List<scalar> 
400
(
3.50759e+09
1.79455e+09
4.31442e+09
4.84178e+09
4.84183e+09
4.84178e+09
4.84183e+09
4.84177e+09
4.84182e+09
4.84178e+09
4.84181e+09
4.84179e+09
4.8418e+09
4.84179e+09
4.84179e+09
4.84179e+09
4.84179e+09
4.84179e+09
4.84179e+09
4.84179e+09
2.04539e+09
4.9657e+09
4.47292e+09
4.96544e+09
4.96532e+09
4.96525e+09
4.96514e+09
4.96508e+09
4.96499e+09
4.96494e+09
4.96487e+09
4.96483e+09
4.96477e+09
4.96474e+09
4.9647e+09
4.96468e+09
4.96465e+09
4.96464e+09
4.96463e+09
4.96463e+09
4.83105e+09
2.3105e+09
5.15486e+09
5.15477e+09
5.15464e+09
5.15456e+09
5.15445e+09
5.15438e+09
5.15428e+09
5.15422e+09
5.15415e+09
5.1541e+09
5.15404e+09
5.154e+09
5.15396e+09
5.15394e+09
5.15391e+09
5.1539e+09
5.15389e+09
5.15389e+09
5.34513e+09
3.23981e+09
5.34492e+09
5.34482e+09
5.34468e+09
5.34459e+09
5.34447e+09
5.34439e+09
5.34429e+09
5.34423e+09
5.34415e+09
5.3441e+09
5.34404e+09
5.34399e+09
5.34395e+09
5.34392e+09
5.3439e+09
5.34388e+09
5.34387e+09
5.34387e+09
5.38129e+09
5.49745e+09
5.49724e+09
5.49714e+09
5.49697e+09
5.4969e+09
5.49675e+09
5.49669e+09
5.49657e+09
5.49651e+09
5.49642e+09
5.49636e+09
5.4963e+09
5.49625e+09
5.49621e+09
5.49618e+09
5.49615e+09
5.49614e+09
5.49613e+09
5.49612e+09
5.60363e+09
3.53589e+09
5.60339e+09
5.60329e+09
5.60313e+09
5.60304e+09
5.60291e+09
5.60282e+09
5.60271e+09
5.60264e+09
5.60255e+09
5.60249e+09
5.60243e+09
5.60238e+09
5.60233e+09
5.6023e+09
5.60227e+09
5.60226e+09
5.60225e+09
5.60224e+09
5.67174e+09
5.24211e+09
5.6715e+09
5.67141e+09
5.6712e+09
5.67116e+09
5.67097e+09
5.67093e+09
5.67078e+09
5.67074e+09
5.67062e+09
5.67058e+09
5.6705e+09
5.67046e+09
5.67041e+09
5.67038e+09
5.67035e+09
5.67033e+09
5.67032e+09
5.67031e+09
5.7141e+09
5.7141e+09
5.71385e+09
5.71374e+09
5.71358e+09
5.71348e+09
5.71335e+09
5.71325e+09
5.71314e+09
5.71306e+09
5.71298e+09
5.71291e+09
5.71285e+09
5.71279e+09
5.71275e+09
5.71271e+09
5.71269e+09
5.71267e+09
5.71266e+09
5.71265e+09
5.74121e+09
1.88159e+09
5.74094e+09
5.74085e+09
5.74066e+09
5.74059e+09
5.74042e+09
5.74036e+09
5.74023e+09
5.74016e+09
5.74007e+09
5.74e+09
5.73993e+09
5.73988e+09
5.73984e+09
5.73981e+09
5.73977e+09
5.73976e+09
5.73974e+09
5.73974e+09
5.76023e+09
5.76022e+09
5.75997e+09
5.75989e+09
5.75967e+09
5.75962e+09
5.75943e+09
5.75939e+09
5.75923e+09
5.75919e+09
5.75906e+09
5.75903e+09
5.75895e+09
5.7589e+09
5.75885e+09
5.75882e+09
5.75879e+09
5.75877e+09
5.75876e+09
5.75875e+09
5.77555e+09
5.77555e+09
5.7753e+09
5.77519e+09
5.77501e+09
5.77491e+09
5.77478e+09
5.77467e+09
5.77458e+09
5.77447e+09
5.77442e+09
5.77431e+09
5.77429e+09
5.77419e+09
5.77418e+09
5.77411e+09
5.77411e+09
5.77408e+09
5.77407e+09
5.77407e+09
5.78968e+09
2.2258e+09
5.78942e+09
5.78932e+09
5.78913e+09
5.78905e+09
5.78889e+09
5.78882e+09
5.78869e+09
5.78862e+09
5.78852e+09
5.78846e+09
5.78839e+09
5.78834e+09
5.78829e+09
5.78825e+09
5.78822e+09
5.78821e+09
5.78819e+09
5.78819e+09
5.80406e+09
5.80406e+09
5.8038e+09
5.8037e+09
5.80351e+09
5.80343e+09
5.80326e+09
5.8032e+09
5.80305e+09
5.803e+09
5.80289e+09
5.80283e+09
5.80276e+09
5.80271e+09
5.80266e+09
5.80262e+09
5.80259e+09
5.80258e+09
5.80256e+09
5.80256e+09
5.81951e+09
2.38474e+09
5.81924e+09
5.81914e+09
5.81896e+09
5.81888e+09
5.81871e+09
5.81864e+09
5.8185e+09
5.81844e+09
5.81833e+09
5.81828e+09
5.8182e+09
5.81815e+09
5.8181e+09
5.81807e+09
5.81804e+09
5.81802e+09
5.81801e+09
5.818e+09
5.83644e+09
5.83643e+09
5.83618e+09
5.83606e+09
5.83589e+09
5.83579e+09
5.83565e+09
5.83556e+09
5.83544e+09
5.83536e+09
5.83526e+09
5.8352e+09
5.83513e+09
5.83508e+09
5.83503e+09
5.83499e+09
5.83496e+09
5.83494e+09
5.83493e+09
5.83492e+09
5.85477e+09
5.85477e+09
5.85451e+09
5.8544e+09
5.85422e+09
5.85412e+09
5.85397e+09
5.85387e+09
5.85377e+09
5.85367e+09
5.8536e+09
5.8535e+09
5.85346e+09
5.85338e+09
5.85336e+09
5.8533e+09
5.85329e+09
5.85326e+09
5.85325e+09
5.85325e+09
5.87371e+09
3.64343e+09
5.87345e+09
5.87334e+09
5.87316e+09
5.87305e+09
5.87292e+09
5.8728e+09
5.87271e+09
5.87259e+09
5.87254e+09
5.87243e+09
5.87241e+09
5.8723e+09
5.8723e+09
5.87222e+09
5.87222e+09
5.87219e+09
5.87218e+09
5.87218e+09
5.89156e+09
5.89157e+09
5.89125e+09
5.89119e+09
5.89099e+09
5.8909e+09
5.89074e+09
5.89066e+09
5.89053e+09
5.89046e+09
5.89036e+09
5.8903e+09
5.89021e+09
5.89017e+09
5.89011e+09
5.89008e+09
5.89004e+09
5.89003e+09
5.89002e+09
5.89001e+09
5.90574e+09
5.90574e+09
5.90548e+09
5.90539e+09
5.90519e+09
5.90512e+09
5.90494e+09
5.90488e+09
5.90474e+09
5.90468e+09
5.90457e+09
5.90452e+09
5.90444e+09
5.90439e+09
5.90434e+09
5.9043e+09
5.90427e+09
5.90425e+09
5.90424e+09
5.90424e+09
5.91223e+09
4.64526e+09
5.91223e+09
5.91223e+09
5.91222e+09
5.91222e+09
5.91222e+09
5.91222e+09
5.91221e+09
5.91221e+09
5.91221e+09
5.91221e+09
5.91221e+09
5.91221e+09
5.91221e+09
5.91221e+09
5.91221e+09
5.91221e+09
5.91221e+09
5.91221e+09
)
;

boundaryField
{
    movingWall
    {
        type            calculated;
        value           nonuniform List<scalar> 
20
(
5.91223e+09
4.64526e+09
5.91223e+09
5.91223e+09
5.91222e+09
5.91222e+09
5.91222e+09
5.91222e+09
5.91221e+09
5.91221e+09
5.91221e+09
5.91221e+09
5.91221e+09
5.91221e+09
5.91221e+09
5.91221e+09
5.91221e+09
5.91221e+09
5.91221e+09
5.91221e+09
)
;
    }
    fixedWalls
    {
        type            calculated;
        value           nonuniform List<scalar> 
60
(
3.50759e+09
2.04539e+09
4.83105e+09
5.34513e+09
5.38129e+09
5.60363e+09
5.67174e+09
5.7141e+09
5.74121e+09
5.76023e+09
5.77555e+09
5.78968e+09
5.80406e+09
5.81951e+09
5.83644e+09
5.85477e+09
5.87371e+09
5.89156e+09
5.90574e+09
5.91223e+09
4.84179e+09
4.96463e+09
5.15389e+09
5.34387e+09
5.49612e+09
5.60224e+09
5.67031e+09
5.71265e+09
5.73974e+09
5.75875e+09
5.77407e+09
5.78819e+09
5.80256e+09
5.818e+09
5.83492e+09
5.85325e+09
5.87218e+09
5.89001e+09
5.90424e+09
5.91221e+09
3.50759e+09
1.79455e+09
4.31442e+09
4.84178e+09
4.84183e+09
4.84178e+09
4.84183e+09
4.84177e+09
4.84182e+09
4.84178e+09
4.84181e+09
4.84179e+09
4.8418e+09
4.84179e+09
4.84179e+09
4.84179e+09
4.84179e+09
4.84179e+09
4.84179e+09
4.84179e+09
)
;
    }
    frontAndBack
    {
        type            empty;
    }
}


// ************************************************************************* //
