/*--------------------------------*- C++ -*----------------------------------*\
| =========                 |                                                 |
| \\      /  F ield         | OpenFOAM: The Open Source CFD Toolbox           |
|  \\    /   O peration     | Version:  2506                                  |
|   \\  /    A nd           | Website:  www.openfoam.com                      |
|    \\/     M anipulation  |                                                 |
\*---------------------------------------------------------------------------*/
FoamFile
{
    version     2.0;
    format      ascii;
    arch        "LSB;label=32;scalar=64";
    class       volScalarField;
    location    "7.5";
    object      P_A;
}
// * * * * * * * * * * * * * * * * * * * * * * * * * * * * * * * * * * * * * //

dimensions      [1 -1 -3 0 0 0 0];

internalField   nonuniform List<scalar> 
400
(
1.09972e-32
1.09971e-32
1.09972e-32
1.0997e-32
1.09973e-32
1.09969e-32
1.09972e-32
1.09969e-32
1.09972e-32
1.0997e-32
1.09971e-32
1.0997e-32
1.09971e-32
1.0997e-32
1.0997e-32
1.0997e-32
1.0997e-32
1.0997e-32
1.0997e-32
1.0997e-32
1.21676e-32
1.20063e-32
1.20189e-32
1.2024e-32
1.20345e-32
1.20399e-32
1.20505e-32
1.20561e-32
1.20668e-32
1.20726e-32
1.20835e-32
1.20895e-32
1.21006e-32
1.21067e-32
1.2118e-32
1.21243e-32
1.21357e-32
1.21423e-32
1.2148e-32
1.21571e-32
1.41338e-32
1.39398e-32
1.39551e-32
1.39614e-32
1.39741e-32
1.39806e-32
1.39935e-32
1.40002e-32
1.40133e-32
1.40201e-32
1.40334e-32
1.40404e-32
1.40538e-32
1.4061e-32
1.40746e-32
1.40819e-32
1.40957e-32
1.41033e-32
1.41101e-32
1.41209e-32
1.63377e-32
1.61092e-32
1.61273e-32
1.61346e-32
1.61496e-32
1.61572e-32
1.61724e-32
1.61802e-32
1.61956e-32
1.62036e-32
1.62193e-32
1.62274e-32
1.62433e-32
1.62517e-32
1.62677e-32
1.62763e-32
1.62925e-32
1.63014e-32
1.63095e-32
1.63222e-32
1.8282e-32
1.80225e-32
1.8043e-32
1.80514e-32
1.80682e-32
1.80771e-32
1.8094e-32
1.81031e-32
1.81204e-32
1.81296e-32
1.81473e-32
1.81566e-32
1.81746e-32
1.81841e-32
1.82023e-32
1.82121e-32
1.82304e-32
1.82406e-32
1.82498e-32
1.82642e-32
1.97362e-32
1.94532e-32
1.94754e-32
1.94845e-32
1.9503e-32
1.95124e-32
1.95312e-32
1.95409e-32
1.95599e-32
1.95698e-32
1.95891e-32
1.95993e-32
1.96189e-32
1.96292e-32
1.96491e-32
1.96598e-32
1.96798e-32
1.96909e-32
1.97009e-32
1.97166e-32
2.07136e-32
2.04146e-32
2.04381e-32
2.04478e-32
2.04669e-32
2.04774e-32
2.04967e-32
2.05073e-32
2.05271e-32
2.05378e-32
2.0558e-32
2.05688e-32
2.05894e-32
2.06004e-32
2.06214e-32
2.06327e-32
2.06538e-32
2.06655e-32
2.06761e-32
2.06927e-32
2.13394e-32
2.10302e-32
2.10544e-32
2.10643e-32
2.10845e-32
2.10948e-32
2.11152e-32
2.11258e-32
2.11466e-32
2.11574e-32
2.11785e-32
2.11895e-32
2.1211e-32
2.12223e-32
2.1244e-32
2.12557e-32
2.12775e-32
2.12896e-32
2.13006e-32
2.13177e-32
2.17473e-32
2.14313e-32
2.14559e-32
2.14662e-32
2.14865e-32
2.14974e-32
2.1518e-32
2.1529e-32
2.15501e-32
2.15612e-32
2.15828e-32
2.15941e-32
2.16159e-32
2.16275e-32
2.16497e-32
2.16617e-32
2.16839e-32
2.16963e-32
2.17075e-32
2.1725e-32
2.2037e-32
2.17162e-32
2.17413e-32
2.17518e-32
2.17722e-32
2.17835e-32
2.18041e-32
2.18156e-32
2.18367e-32
2.18483e-32
2.18698e-32
2.18815e-32
2.19036e-32
2.19154e-32
2.19379e-32
2.195e-32
2.19726e-32
2.19852e-32
2.19966e-32
2.20144e-32
2.22724e-32
2.19478e-32
2.19732e-32
2.19836e-32
2.20047e-32
2.20155e-32
2.20371e-32
2.2048e-32
2.207e-32
2.2081e-32
2.21036e-32
2.21147e-32
2.21377e-32
2.21491e-32
2.21723e-32
2.21842e-32
2.22074e-32
2.222e-32
2.22315e-32
2.22495e-32
2.24913e-32
2.2163e-32
2.21887e-32
2.21993e-32
2.22204e-32
2.22316e-32
2.22531e-32
2.22645e-32
2.22864e-32
2.2298e-32
2.23203e-32
2.2332e-32
2.23548e-32
2.23668e-32
2.23898e-32
2.24022e-32
2.24254e-32
2.24382e-32
2.24498e-32
2.24681e-32
2.27156e-32
2.23837e-32
2.24096e-32
2.24203e-32
2.24417e-32
2.24531e-32
2.24747e-32
2.24863e-32
2.25083e-32
2.25201e-32
2.25426e-32
2.25546e-32
2.25775e-32
2.25897e-32
2.26129e-32
2.26255e-32
2.26489e-32
2.26619e-32
2.26736e-32
2.26921e-32
2.29585e-32
2.26226e-32
2.26488e-32
2.26596e-32
2.26814e-32
2.26928e-32
2.27147e-32
2.27265e-32
2.27488e-32
2.27607e-32
2.27835e-32
2.27956e-32
2.28188e-32
2.28311e-32
2.28546e-32
2.28673e-32
2.2891e-32
2.29042e-32
2.29161e-32
2.29347e-32
2.32269e-32
2.28865e-32
2.29132e-32
2.2924e-32
2.29463e-32
2.29576e-32
2.298e-32
2.29917e-32
2.30145e-32
2.30264e-32
2.30497e-32
2.30618e-32
2.30854e-32
2.30978e-32
2.31216e-32
2.31345e-32
2.31585e-32
2.31719e-32
2.31839e-32
2.32028e-32
2.35203e-32
2.31751e-32
2.32021e-32
2.32131e-32
2.32355e-32
2.3247e-32
2.32698e-32
2.32816e-32
2.33048e-32
2.33167e-32
2.33405e-32
2.33525e-32
2.33768e-32
2.3389e-32
2.34135e-32
2.34263e-32
2.34509e-32
2.34643e-32
2.34765e-32
2.34957e-32
2.38263e-32
2.3476e-32
2.35034e-32
2.35145e-32
2.35373e-32
2.3549e-32
2.35722e-32
2.3584e-32
2.36077e-32
2.36196e-32
2.3644e-32
2.36559e-32
2.36807e-32
2.3693e-32
2.3718e-32
2.37308e-32
2.37559e-32
2.37694e-32
2.37819e-32
2.38013e-32
2.41172e-32
2.37624e-32
2.37896e-32
2.38014e-32
2.38243e-32
2.38363e-32
2.38595e-32
2.38718e-32
2.38955e-32
2.3908e-32
2.39322e-32
2.39449e-32
2.39694e-32
2.39825e-32
2.40072e-32
2.40207e-32
2.40457e-32
2.40597e-32
2.40722e-32
2.40919e-32
2.43505e-32
2.39986e-32
2.40257e-32
2.40368e-32
2.40591e-32
2.40711e-32
2.40937e-32
2.41061e-32
2.41292e-32
2.41418e-32
2.41655e-32
2.41783e-32
2.42026e-32
2.42157e-32
2.42404e-32
2.4254e-32
2.4279e-32
2.42932e-32
2.43057e-32
2.43256e-32
2.44578e-32
2.44577e-32
2.44576e-32
2.44576e-32
2.44575e-32
2.44576e-32
2.44574e-32
2.44575e-32
2.44574e-32
2.44574e-32
2.44574e-32
2.44574e-32
2.44574e-32
2.44574e-32
2.44574e-32
2.44574e-32
2.44574e-32
2.44574e-32
2.44574e-32
2.44574e-32
)
;

boundaryField
{
    movingWall
    {
        type            calculated;
        value           nonuniform List<scalar> 
20
(
2.44578e-32
2.44577e-32
2.44576e-32
2.44576e-32
2.44575e-32
2.44576e-32
2.44574e-32
2.44575e-32
2.44574e-32
2.44574e-32
2.44574e-32
2.44574e-32
2.44574e-32
2.44574e-32
2.44574e-32
2.44574e-32
2.44574e-32
2.44574e-32
2.44574e-32
2.44574e-32
)
;
    }
    fixedWalls
    {
        type            calculated;
        value           nonuniform List<scalar> 
60
(
1.09972e-32
1.21676e-32
1.41338e-32
1.63377e-32
1.8282e-32
1.97362e-32
2.07136e-32
2.13394e-32
2.17473e-32
2.2037e-32
2.22724e-32
2.24913e-32
2.27156e-32
2.29585e-32
2.32269e-32
2.35203e-32
2.38263e-32
2.41172e-32
2.43505e-32
2.44578e-32
1.0997e-32
1.21571e-32
1.41209e-32
1.63222e-32
1.82642e-32
1.97166e-32
2.06927e-32
2.13177e-32
2.1725e-32
2.20144e-32
2.22495e-32
2.24681e-32
2.26921e-32
2.29347e-32
2.32028e-32
2.34957e-32
2.38013e-32
2.40919e-32
2.43256e-32
2.44574e-32
1.09972e-32
1.09971e-32
1.09972e-32
1.0997e-32
1.09973e-32
1.09969e-32
1.09972e-32
1.09969e-32
1.09972e-32
1.0997e-32
1.09971e-32
1.0997e-32
1.09971e-32
1.0997e-32
1.0997e-32
1.0997e-32
1.0997e-32
1.0997e-32
1.0997e-32
1.0997e-32
)
;
    }
    frontAndBack
    {
        type            empty;
    }
}


// ************************************************************************* //
