/*--------------------------------*- C++ -*----------------------------------*\
| =========                 |                                                 |
| \\      /  F ield         | OpenFOAM: The Open Source CFD Toolbox           |
|  \\    /   O peration     | Version:  2506                                  |
|   \\  /    A nd           | Website:  www.openfoam.com                      |
|    \\/     M anipulation  |                                                 |
\*---------------------------------------------------------------------------*/
FoamFile
{
    version     2.0;
    format      ascii;
    arch        "LSB;label=32;scalar=64";
    class       surfaceScalarField;
    location    "7.5";
    object      PecletNoField;
}
// * * * * * * * * * * * * * * * * * * * * * * * * * * * * * * * * * * * * * //

dimensions      [0 0 0 0 0 0 0];

oriented        oriented;

internalField   nonuniform List<scalar> 
760
(
445.149
4.32562e-12
445.149
6.44603e-12
445.149
1.85607e-12
445.149
2.61227e-13
445.149
6.10616e-14
445.149
2.30246e-14
445.149
2.51446e-14
445.149
4.71682e-14
445.149
3.65003e-14
445.149
5.0302e-14
445.149
3.63446e-14
445.149
2.06629e-14
445.149
1.99003e-14
445.149
9.35869e-15
445.149
2.09367e-14
445.149
1.38153e-14
445.149
4.23729e-14
445.149
1.82055e-14
445.149
5.15558e-14
4.02614e-14
444.202
4.51009e-12
443.902
5.56445e-12
443.944
1.59567e-12
443.981
2.87283e-13
444.018
7.68474e-14
444.055
1.79837e-14
444.092
6.56067e-14
444.129
5.45064e-14
444.166
3.15241e-14
444.204
1.99977e-14
444.241
2.80765e-14
444.278
4.15985e-14
444.315
8.25806e-15
444.352
2.38035e-15
444.389
3.59444e-14
444.427
2.67132e-14
444.464
4.90243e-14
444.489
3.88675e-14
444.52
4.18858e-14
5.53798e-15
443.26
7.00225e-13
442.945
8.04026e-13
442.991
1.03199e-13
443.03
5.4678e-14
443.069
2.00135e-14
443.109
8.11663e-15
443.148
5.89883e-14
443.187
1.42264e-14
443.226
2.73045e-14
443.265
4.69377e-14
443.304
1.4394e-14
443.343
7.89801e-14
443.382
9.89314e-15
443.421
3.27993e-14
443.46
1.27424e-14
443.498
1.0783e-14
443.537
1.36364e-14
443.563
6.3192e-14
443.595
5.68221e-14
1.27166e-14
442.341
3.23592e-12
442.015
4.40587e-12
442.062
1.2977e-12
442.103
2.03792e-13
442.143
6.09345e-14
442.184
3.67091e-14
442.225
3.0792e-14
442.265
1.20865e-14
442.305
4.02613e-14
442.346
4.37145e-14
442.386
1.76325e-14
442.426
1.05169e-14
442.466
3.09248e-14
442.506
4.13134e-14
442.547
4.78583e-14
442.586
8.93222e-15
442.626
2.32005e-14
442.653
5.84524e-14
442.686
2.78574e-14
3.25839e-14
441.617
4.15075e-12
441.283
5.29398e-12
441.331
1.55241e-12
441.373
2.11336e-13
441.414
3.10747e-14
441.456
3.48204e-14
441.498
5.74991e-15
441.539
7.60539e-14
441.581
4.43568e-14
441.622
5.29351e-14
441.663
2.00943e-14
441.705
5.64721e-14
441.746
3.05e-14
441.787
4.8367e-14
441.828
6.53752e-14
441.869
4.90396e-14
441.91
2.00513e-14
441.938
4.36107e-14
441.971
1.99188e-14
6.97195e-15
441.119
1.7979e-12
440.779
2.66048e-12
440.828
5.63614e-13
440.87
1.31936e-13
440.913
4.97814e-14
440.955
4.42902e-14
440.998
4.18948e-14
441.04
6.57697e-15
441.082
3.5554e-14
441.124
8.00295e-15
441.167
6.75209e-15
441.209
7.00751e-14
441.251
2.15155e-14
441.292
4.25272e-14
441.334
6.94396e-14
441.376
8.66194e-14
441.418
3.58394e-14
441.446
2.96872e-14
441.48
5.29034e-15
1.27468e-14
440.802
2.0284e-12
440.459
3.24188e-12
440.508
1.04582e-12
440.551
1.85634e-13
440.594
3.41018e-14
440.637
2.62261e-14
440.68
1.97367e-14
440.723
6.0174e-14
440.765
3.03187e-15
440.808
5.75637e-14
440.851
2.22711e-14
440.893
1.37492e-14
440.936
3.56054e-14
440.978
6.44659e-14
441.02
6.06092e-14
441.062
3.54878e-14
441.105
1.03058e-14
441.133
7.86954e-15
441.168
6.04052e-14
1.27834e-14
440.607
2.57922e-12
440.26
4.01076e-12
440.31
1.53573e-12
440.353
1.86081e-13
440.397
9.83156e-14
440.44
3.91958e-14
440.483
6.65638e-14
440.526
1.75412e-14
440.569
1.45357e-14
440.612
4.47149e-14
440.655
3.89935e-14
440.698
2.7144e-14
440.741
1.52353e-14
440.783
5.06288e-14
440.826
9.296e-14
440.868
7.05901e-14
440.911
5.15828e-16
440.94
1.05376e-13
440.974
1.02331e-13
2.18032e-14
440.482
1.82246e-12
440.134
2.75913e-12
440.184
9.70708e-13
440.228
2.03137e-13
440.271
1.94343e-15
440.315
3.57335e-14
440.358
3.55258e-15
440.401
3.62915e-14
440.444
4.13094e-14
440.487
2.22165e-14
440.531
4.44991e-14
440.574
2.88014e-14
440.617
2.84747e-14
440.659
1.14227e-15
440.702
1.08227e-14
440.745
3.01911e-14
440.787
4.68393e-14
440.816
5.34667e-14
440.851
3.1551e-14
1.77933e-14
440.394
2.78119e-13
440.046
2.87235e-13
440.096
1.00693e-13
440.139
4.14005e-14
440.183
1.34866e-14
440.227
2.04272e-14
440.27
1.25558e-14
440.314
4.0159e-15
440.357
1.9473e-14
440.4
1.79444e-14
440.444
3.37624e-14
440.486
2.01806e-14
440.53
1.3864e-14
440.572
1.92683e-14
440.615
8.32473e-15
440.658
3.64183e-14
440.701
4.85438e-14
440.73
1.73835e-14
440.765
6.02799e-14
4.20446e-14
440.324
1.94625e-12
439.975
2.24186e-12
440.025
7.52557e-13
440.069
1.26837e-13
440.113
5.17345e-16
440.156
2.26455e-14
440.2
4.74239e-15
440.243
6.15485e-14
440.287
5.58211e-14
440.33
1.99983e-14
440.373
3.98524e-14
440.417
1.18806e-14
440.46
5.97675e-14
440.503
9.90349e-14
440.546
7.79133e-14
440.589
3.58656e-14
440.632
1.46162e-14
440.661
4.33136e-14
440.696
6.40754e-14
2.52999e-14
440.26
1.29404e-12
439.909
2.40172e-12
439.96
9.84054e-13
440.004
2.15924e-13
440.048
7.35124e-14
440.091
2.86352e-14
440.135
2.81376e-14
440.178
4.07429e-15
440.222
1.52071e-14
440.265
3.66347e-14
440.309
4.4907e-15
440.352
2.05228e-14
440.395
4.39211e-14
440.439
1.18411e-13
440.482
5.99459e-14
440.525
3.12165e-14
440.568
3.87937e-14
440.597
3.48836e-14
440.632
6.07975e-15
2.79452e-14
440.194
6.96533e-13
439.843
1.53184e-12
439.894
9.68244e-13
439.937
3.29859e-14
439.981
5.31085e-14
440.025
7.21825e-14
440.069
2.87133e-14
440.113
3.09603e-14
440.156
2.45078e-14
440.2
1.98895e-14
440.243
8.58861e-14
440.287
9.14492e-14
440.33
4.6017e-14
440.373
2.02706e-14
440.417
2.76467e-14
440.46
2.7586e-14
440.503
1.3513e-14
440.532
4.02556e-15
440.567
3.27997e-14
7.8828e-16
440.124
5.05667e-13
439.772
1.12892e-12
439.823
4.4206e-13
439.866
1.45036e-13
439.911
6.36148e-14
439.954
2.54672e-14
439.998
2.34698e-14
440.042
8.73451e-15
440.086
2.52956e-14
440.13
5.04282e-14
440.173
4.47703e-14
440.217
7.46527e-14
440.26
7.371e-14
440.303
1.92297e-14
440.347
3.34424e-14
440.39
4.78951e-15
440.433
7.21423e-14
440.462
6.08089e-14
440.498
1.50326e-14
1.87266e-14
440.047
8.76644e-13
439.694
1.62115e-12
439.745
4.41873e-13
439.789
1.38721e-13
439.833
4.33004e-14
439.877
3.98958e-14
439.921
7.49502e-15
439.965
3.04821e-14
440.009
4.87501e-14
440.053
3.9181e-14
440.096
4.97692e-14
440.14
5.3876e-14
440.184
4.83362e-14
440.227
2.04779e-14
440.27
4.30984e-14
440.314
6.26124e-14
440.357
1.65868e-14
440.386
1.24013e-14
440.422
3.84929e-14
2.30306e-14
439.964
4.08724e-12
439.61
5.03862e-12
439.661
1.44061e-12
439.705
2.82066e-13
439.749
9.29134e-14
439.793
1.0193e-15
439.838
3.26938e-14
439.882
1.47357e-14
439.926
3.17033e-14
439.97
6.90135e-14
440.013
8.61945e-14
440.057
5.16856e-14
440.101
3.35979e-14
440.144
1.06707e-14
440.188
4.27277e-14
440.231
3.86972e-15
440.275
6.83633e-14
440.304
5.91994e-14
440.34
1.84025e-15
1.90224e-14
439.878
2.6529e-12
439.523
3.89655e-12
439.574
1.197e-12
439.618
1.6279e-13
439.663
3.65224e-14
439.707
2.68783e-14
439.752
2.82228e-16
439.796
5.30447e-14
439.84
1.58251e-14
439.884
2.14928e-14
439.928
3.10632e-14
439.972
4.79465e-15
440.016
6.11029e-14
440.059
6.43497e-14
440.103
2.73011e-14
440.146
3.67152e-14
440.19
6.65938e-14
440.22
3.03489e-14
440.255
2.26895e-14
1.11404e-14
439.797
2.71836e-12
439.442
3.19723e-12
439.493
7.73443e-13
439.537
1.30714e-13
439.582
7.59017e-14
439.626
1.0337e-14
439.671
1.76212e-14
439.715
7.72498e-14
439.759
8.79841e-15
439.803
5.52963e-14
439.847
4.23758e-14
439.891
3.81951e-14
439.935
1.1348e-13
439.979
1.06e-13
440.023
4.23196e-15
440.067
3.26845e-14
440.11
4.64007e-14
440.14
2.16728e-14
440.176
2.34616e-14
4.30599e-14
439.741
3.92682e-12
439.391
5.52099e-12
439.441
1.56382e-12
439.484
2.77581e-13
439.527
3.13159e-14
439.57
3.47377e-14
439.613
5.56287e-14
439.657
9.34676e-14
439.7
3.98955e-14
439.743
9.14276e-15
439.787
3.99375e-15
439.83
2.63378e-14
439.873
5.3301e-14
439.917
1.12362e-14
439.96
7.30667e-14
440.003
6.53797e-14
440.047
1.93645e-14
440.077
1.7983e-14
440.112
1.27289e-14
2.31441e-14
440.098
440.098
440.098
440.098
440.098
440.098
440.098
440.098
440.098
440.098
440.098
440.098
440.098
440.098
440.099
440.099
440.099
440.099
440.099
)
;

boundaryField
{
    movingWall
    {
        type            calculated;
        value           uniform 0;
    }
    fixedWalls
    {
        type            calculated;
        value           nonuniform List<scalar> 
60
(
250
250
250
250
250
250
250
250
250
250
250
250
250
250
250
250
250
250
250
250
250
250
250
250
250
250
250
250
250
250
250
250
250
250
250
250
250
250
250
250
0
0
0
0
0
0
0
0
0
0
0
0
0
0
0
0
0
0
0
0
)
;
    }
    frontAndBack
    {
        type            empty;
    }
}


// ************************************************************************* //
