/*--------------------------------*- C++ -*----------------------------------*\
| =========                 |                                                 |
| \\      /  F ield         | OpenFOAM: The Open Source CFD Toolbox           |
|  \\    /   O peration     | Version:  2506                                  |
|   \\  /    A nd           | Website:  www.openfoam.com                      |
|    \\/     M anipulation  |                                                 |
\*---------------------------------------------------------------------------*/
FoamFile
{
    version     2.0;
    format      ascii;
    arch        "LSB;label=32;scalar=64";
    class       volScalarField;
    location    "7.5";
    object      QField;
}
// * * * * * * * * * * * * * * * * * * * * * * * * * * * * * * * * * * * * * //

dimensions      [0 0 -2 0 0 0 0];

internalField   nonuniform List<scalar> 
400
(
-4.13305e-23
-1.3802e-23
-4.34439e-25
-3.0568e-26
-9.91701e-27
0
0
-4.24735e-28
5.58552e-30
1.58067e-28
-8.4425e-28
-4.59255e-28
-4.01905e-29
4.07429e-28
-5.28907e-28
-5.33721e-28
-2.2551e-28
-9.18317e-29
-2.77256e-28
-2.00507e-28
-7.68214e-23
-2.35326e-23
-1.48986e-24
-1.85934e-26
-4.90627e-27
2.12294e-27
1.62345e-27
1.55452e-28
6.50713e-29
-1.12816e-27
1.02539e-28
4.64832e-28
0
3.90449e-28
-5.19427e-28
0
0
7.74114e-28
-1.11658e-27
0
-7.6451e-23
-2.57893e-23
-4.73156e-25
-1.10451e-25
2.18045e-28
-2.78149e-27
-1.52707e-27
-6.42479e-28
8.64094e-28
1.14092e-27
-3.77774e-28
-1.62852e-27
-3.75776e-28
3.79116e-31
-6.48249e-28
5.31235e-28
7.30118e-28
3.16543e-28
0
0
-6.70121e-23
-2.01505e-23
-8.76836e-25
2.29357e-26
-2.22785e-26
6.25171e-27
-9.47258e-28
3.85276e-29
2.07249e-28
4.69395e-29
-6.17354e-28
-9.36451e-28
0
0
1.9757e-29
6.35056e-28
0
2.57404e-28
-4.08929e-28
8.96233e-28
-6.07019e-23
-1.75546e-23
-1.19264e-24
-2.18836e-26
-1.95761e-27
-1.42705e-27
1.08889e-29
0
4.73497e-29
8.98901e-28
3.91732e-28
-1.29538e-28
0
3.75872e-29
0
0
-2.24863e-28
-3.56423e-28
2.3639e-28
-5.00503e-28
-6.55201e-23
-2.09563e-23
-8.96859e-25
4.42675e-27
-3.02572e-27
0
0
-4.45696e-28
0
2.40435e-28
4.59112e-28
-1.14336e-27
9.98838e-28
1.99864e-27
6.36757e-28
-3.98795e-28
-3.61856e-28
-4.27269e-28
3.04724e-28
-2.55693e-28
-4.86656e-23
-1.92576e-23
7.53391e-26
-1.73692e-25
2.7099e-26
-5.15496e-27
-1.53235e-27
-5.83058e-28
1.48506e-27
-3.96416e-28
0
1.63029e-28
1.72332e-27
9.06813e-28
-5.25395e-28
-3.94212e-27
-2.00191e-28
0
-6.74306e-28
-1.55987e-28
-2.04089e-23
-8.70998e-24
-4.46821e-25
-2.28051e-26
-1.06293e-28
-8.66438e-28
-1.23766e-27
-2.76475e-28
0
-8.16539e-28
-3.22541e-29
-5.79229e-28
2.3667e-28
-3.86782e-28
-2.60277e-28
-2.40461e-28
1.86182e-27
1.17876e-27
0
0
-1.89143e-23
-8.67436e-24
-3.23144e-25
-2.91478e-26
1.87894e-28
-1.61908e-27
-3.88029e-28
-2.36891e-28
3.62274e-28
0
7.83132e-28
4.04499e-28
-5.8407e-28
-5.90407e-28
1.04056e-28
-1.02733e-28
1.67672e-27
-1.95195e-29
-1.44049e-27
4.25058e-28
-2.84729e-23
-9.9627e-24
-1.7071e-26
-1.12263e-26
-4.45942e-27
1.11473e-27
-1.40112e-28
-7.8891e-29
0
4.68513e-28
-2.91046e-28
-1.20972e-27
0
-1.80551e-28
0
2.37358e-28
0
-8.77136e-28
-2.72869e-27
1.24587e-28
-1.62423e-23
-6.02974e-24
2.13931e-25
2.15951e-26
1.45754e-26
-1.93902e-27
-9.34359e-29
-1.2034e-27
-2.3985e-28
1.13591e-27
1.71782e-27
-2.4225e-28
-8.25314e-28
-2.68133e-27
-1.08893e-27
2.05185e-28
1.0782e-27
1.23728e-27
-8.47165e-29
6.09092e-28
7.27405e-24
-1.31141e-24
3.57802e-25
-2.74917e-26
1.28127e-26
-1.46134e-27
1.79327e-27
-3.6451e-29
-5.93139e-28
-3.76804e-28
-3.57777e-28
3.84855e-27
3.24782e-27
-3.77234e-28
-1.45794e-27
0
1.98454e-28
1.16351e-28
-5.98411e-28
0
1.27658e-23
1.28606e-24
-1.5572e-25
3.35697e-26
2.31408e-27
-1.25053e-28
-6.35827e-28
-3.18971e-29
9.01762e-29
2.95025e-28
-1.85403e-27
-8.04918e-28
-9.68743e-28
-2.47597e-27
6.3912e-28
-3.93154e-28
-2.91623e-28
1.66976e-28
-3.14912e-28
0
9.94717e-24
-1.16194e-24
5.13836e-25
-1.04792e-26
5.54435e-27
-3.21645e-27
-1.04165e-28
-8.35288e-28
-3.49565e-28
-6.62761e-28
-5.22952e-28
9.9801e-28
3.01722e-27
2.3643e-27
-2.3172e-28
-1.01998e-27
-1.01478e-27
0
0
0
-1.66044e-23
-8.18993e-24
4.31684e-25
-4.00722e-26
2.33065e-26
-1.03192e-27
1.05546e-27
1.27503e-28
3.30947e-28
3.25706e-28
1.3693e-27
7.12042e-28
-7.0273e-28
-5.09505e-28
-5.41632e-28
2.15178e-28
-1.15493e-28
-3.1257e-28
-2.80455e-29
0
-4.60341e-23
-1.40152e-23
-5.66517e-25
-2.30268e-26
-3.25351e-27
3.65002e-27
4.49948e-29
0
1.3601e-29
1.98199e-28
4.664e-28
4.74022e-28
0
0
3.30914e-28
-5.69643e-28
-1.83715e-27
-3.4893e-28
0
0
-5.49839e-23
-1.57346e-23
-1.03549e-24
-2.07729e-26
-8.18288e-27
5.62398e-28
6.06183e-28
4.17976e-29
2.14213e-30
-1.36485e-27
-7.98179e-28
5.34221e-28
2.66419e-29
2.22289e-28
1.73251e-27
5.63096e-28
0
1.51982e-27
0
0
-5.49896e-23
-1.73544e-23
-4.73191e-25
-4.56127e-26
-7.95531e-27
0
1.27636e-27
0
2.11468e-27
-4.48282e-28
2.86457e-28
1.73782e-28
-5.15348e-27
-2.07343e-27
-5.99753e-28
-3.79405e-28
-2.18447e-27
0
-8.18931e-28
-1.56832e-28
-4.77313e-23
-1.48397e-23
-4.74169e-25
-3.70387e-26
1.03411e-26
1.83237e-27
1.31127e-27
-3.12402e-27
5.72644e-28
-2.49599e-28
8.48463e-28
3.87362e-27
3.62816e-28
-1.44002e-27
-1.17437e-27
-3.65164e-28
0
8.21104e-28
1.26554e-28
-1.25108e-28
-2.15081e-23
-5.83384e-24
-4.07199e-25
-4.20082e-27
-6.64408e-27
-1.4314e-28
-8.98675e-28
6.60745e-28
6.06904e-28
3.92499e-28
4.51487e-29
-1.10546e-27
-1.0055e-27
-3.87197e-28
-1.66862e-27
0
4.9313e-28
-2.90038e-28
1.11732e-28
-9.21994e-29
)
;

boundaryField
{
    movingWall
    {
        type            calculated;
        value           nonuniform List<scalar> 
20
(
4.83039e-24
3.5311e-24
-8.76234e-25
5.72918e-26
-2.44364e-26
-2.09603e-27
-4.7427e-27
2.98776e-27
2.66262e-27
4.03678e-28
-9.37665e-28
-6.40347e-28
-5.39806e-28
-1.90315e-27
-3.66149e-27
0
1.35359e-28
-6.7826e-28
-1.65543e-28
5.84046e-29
)
;
    }
    fixedWalls
    {
        type            calculated;
        value           nonuniform List<scalar> 
60
(
-2.2525e-22
-4.26315e-22
-3.90336e-22
-3.47724e-22
-3.30083e-22
-3.45684e-22
-2.51543e-22
-1.3984e-22
-1.23274e-22
-1.5039e-22
-8.16682e-23
2.85417e-23
4.1815e-23
3.8998e-23
-8.47723e-23
-2.48402e-22
-2.9553e-22
-2.83295e-22
-2.52841e-22
-1.19927e-22
-3.28511e-28
0
0
9.33998e-28
-8.14979e-28
-4.57489e-28
1.42922e-30
0
3.23555e-28
2.04124e-28
3.75513e-28
0
0
0
0
0
0
-2.86659e-28
-2.04976e-28
-2.09464e-28
1.05154e-23
8.47843e-24
-1.73406e-24
1.40109e-25
-4.06992e-26
6.77924e-27
-2.71609e-27
-5.22707e-28
-8.73738e-28
-2.58976e-28
-8.25483e-28
-7.52443e-28
-5.01557e-28
-7.14527e-28
0
0
-1.84439e-28
-8.91297e-28
-8.64561e-28
1.555e-28
)
;
    }
    frontAndBack
    {
        type            empty;
    }
}


// ************************************************************************* //
