/*--------------------------------*- C++ -*----------------------------------*\
| =========                 |                                                 |
| \\      /  F ield         | OpenFOAM: The Open Source CFD Toolbox           |
|  \\    /   O peration     | Version:  2506                                  |
|   \\  /    A nd           | Website:  www.openfoam.com                      |
|    \\/     M anipulation  |                                                 |
\*---------------------------------------------------------------------------*/
FoamFile
{
    version     2.0;
    format      ascii;
    arch        "LSB;label=32;scalar=64";
    class       surfaceScalarField;
    location    "7.5";
    object      surfaceDivU;
}
// * * * * * * * * * * * * * * * * * * * * * * * * * * * * * * * * * * * * * //

dimensions      [0 0 -1 0 0 0 0];

internalField   nonuniform List<scalar> 
760
(
6.58093e-12
-6.58653e-12
-6.54457e-13
7.57271e-13
1.09681e-13
-1.43971e-13
-4.85563e-14
8.67827e-14
2.48924e-15
9.88301e-16
4.79217e-15
9.79179e-16
2.63816e-15
-2.57138e-14
-1.11678e-14
1.89688e-14
3.36063e-15
-4.01691e-14
3.04019e-15
2.07689e-14
1.03579e-15
-2.04244e-14
1.96176e-14
-4.70689e-15
7.45166e-16
1.08292e-14
-1.06439e-14
-4.12857e-14
-2.24871e-15
2.42058e-14
2.13947e-15
-8.81948e-15
1.76688e-14
8.10594e-15
3.42047e-15
1.39397e-14
-2.19906e-14
1.34828e-14
-1.35525e-14
-1.24102e-11
-8.09086e-12
1.26776e-12
9.23402e-13
-1.6687e-13
-1.95612e-13
1.36327e-13
1.24088e-13
-5.21758e-16
-4.55636e-14
-2.95268e-14
2.79086e-14
-9.38311e-15
-1.2498e-14
-1.00325e-14
2.57507e-14
-2.27609e-14
-1.29086e-14
-2.69576e-15
-1.77706e-16
-2.61671e-14
-2.43903e-14
-1.34953e-14
6.01701e-15
-3.12017e-14
-2.01822e-15
-6.43606e-15
-2.30454e-14
1.7635e-14
-9.7044e-16
-2.85301e-15
7.66698e-15
4.37688e-15
-2.90465e-15
2.40021e-14
1.03875e-15
2.19209e-14
1.00259e-14
0
5.24273e-12
1.14248e-11
-5.39967e-13
-1.10832e-12
9.53464e-14
2.00818e-13
-5.78029e-14
-5.44032e-14
-1.71332e-14
-3.6428e-14
4.49374e-14
1.71267e-14
2.26359e-14
1.49943e-14
2.28746e-14
-5.84078e-15
9.67455e-15
2.66943e-14
-2.18722e-14
5.33936e-15
7.79388e-15
-9.72254e-15
1.74941e-14
1.89366e-14
6.13808e-15
6.037e-15
-1.75798e-14
1.66799e-14
-1.09385e-14
-2.85378e-14
7.61533e-15
1.32297e-14
-6.24279e-15
-1.08855e-14
-1.29375e-14
-3.81582e-16
-1.1895e-14
-2.02155e-14
0
5.07373e-12
-5.43456e-12
-3.67533e-13
5.99093e-13
5.10689e-14
-9.88287e-14
-3.30284e-14
6.03614e-14
-2.16809e-15
-6.7986e-15
-1.28164e-14
-2.64212e-14
-1.34824e-14
4.75962e-15
-2.02101e-15
-4.65894e-15
2.23592e-14
6.68767e-15
1.7489e-14
3.58069e-14
1.42016e-15
-1.05334e-14
7.47948e-15
-8.58493e-15
1.65788e-14
8.89319e-15
5.72185e-15
6.54322e-15
-4.36957e-15
-3.92017e-15
-5.27114e-15
1.15684e-14
-5.02432e-15
-2.07749e-14
-7.65964e-15
-5.65591e-15
-8.32053e-15
9.93581e-16
0
-9.9092e-12
-2.6834e-12
8.67797e-13
3.41584e-13
-8.95362e-14
-4.91478e-14
8.65911e-14
2.29703e-14
-3.10517e-14
1.65099e-14
-8.84516e-15
-2.27754e-14
1.35831e-14
1.75576e-14
4.04974e-15
-8.63601e-15
2.01354e-14
7.91754e-15
7.78447e-15
1.89067e-14
-2.05385e-14
-1.10416e-14
-7.17121e-15
1.01052e-14
-1.14237e-15
5.38204e-15
-3.0988e-15
-2.78772e-15
1.20178e-14
7.03498e-15
-3.93542e-15
1.3356e-14
-2.14065e-14
-2.35044e-14
2.99731e-15
-1.83044e-14
9.31411e-15
2.42494e-14
-1.35525e-14
7.56738e-12
1.05574e-11
-5.75361e-13
-1.25004e-12
6.33587e-14
2.17916e-13
-4.71109e-14
-1.08336e-13
2.47862e-14
3.8062e-14
3.62733e-15
2.55754e-16
-4.66145e-15
-3.93476e-15
-4.76821e-15
1.21705e-14
6.68882e-15
1.04703e-14
8.05587e-17
-4.93241e-15
1.96021e-14
-3.98267e-16
2.26585e-14
3.02808e-14
3.73669e-15
-1.90908e-14
7.34606e-15
-1.81863e-14
8.37319e-15
-3.5982e-15
-6.213e-15
2.32311e-14
-2.04023e-14
3.90883e-15
2.94766e-15
-3.56505e-15
1.38274e-15
1.52042e-14
-1.35525e-14
1.73999e-12
-9.09375e-12
-4.56766e-13
1.39201e-12
4.62213e-14
-3.14948e-13
-2.31634e-14
1.13161e-13
1.35315e-14
-1.74028e-14
-7.30633e-15
2.48119e-14
1.28972e-14
8.93118e-15
2.7409e-14
-5.55473e-15
-1.15088e-15
2.62831e-15
-5.41123e-15
2.08989e-15
1.02805e-14
8.01215e-15
-1.14684e-14
1.60014e-15
-4.10138e-14
-3.92636e-15
-2.91306e-14
-1.14441e-14
1.12597e-14
5.25663e-15
3.33529e-14
9.21204e-15
2.07461e-14
1.46488e-14
8.69153e-15
-1.36974e-14
2.68972e-16
6.05718e-15
0
-9.44173e-12
-4.74338e-13
1.53383e-12
1.53574e-13
-2.48008e-13
-3.44644e-14
1.18922e-13
-7.78091e-15
-6.12237e-15
-2.38759e-14
4.10494e-14
1.0277e-14
-9.52071e-15
1.26885e-14
-3.03354e-14
-2.09271e-14
5.86908e-15
3.27242e-15
1.55133e-14
1.82966e-15
-6.68232e-16
1.76425e-14
9.14221e-15
-2.32669e-15
2.56433e-14
9.92933e-15
2.29431e-14
-1.00916e-14
3.20897e-15
9.40526e-15
-9.49205e-15
-3.38599e-14
-1.97946e-14
-2.83614e-16
-1.63317e-14
-6.96627e-15
5.7882e-15
2.53953e-14
0
9.12096e-12
6.12574e-12
-1.41472e-12
-9.9756e-13
2.05763e-13
2.2196e-13
-1.50579e-13
-1.32126e-13
-7.47652e-15
7.35375e-15
-1.8084e-14
-1.27448e-16
1.28209e-15
4.2608e-15
1.26808e-14
-7.04305e-15
-7.66993e-16
1.77176e-14
3.95892e-15
-1.44999e-15
1.59841e-14
-1.91313e-14
-1.53957e-15
2.84628e-14
-2.58056e-14
-6.0104e-15
-2.36294e-14
-1.68166e-14
-2.76636e-14
-2.19791e-15
-2.46514e-14
-1.33477e-14
1.25447e-14
-9.62146e-15
3.47607e-14
1.4127e-14
1.96071e-14
4.95407e-14
-1.35525e-14
-3.99278e-12
-7.68428e-12
6.39118e-13
1.20149e-12
-1.15929e-13
-2.21354e-13
2.58064e-14
5.3151e-14
1.47028e-14
8.61474e-15
2.22173e-14
2.73009e-15
-4.06434e-15
-1.84213e-15
-2.00621e-15
-1.82915e-14
1.70346e-14
6.8633e-15
-2.45402e-14
9.28483e-15
-6.65254e-15
-1.97957e-14
2.3992e-14
5.38188e-15
2.9786e-15
1.29146e-14
4.61491e-15
-6.59393e-15
1.2118e-14
-1.09922e-14
1.6823e-15
1.7917e-15
-8.03915e-15
-6.22818e-16
2.8907e-14
2.24372e-14
1.63811e-14
3.1896e-14
-1.35525e-14
-2.49001e-12
6.01732e-12
3.4102e-13
-1.42261e-12
-5.22747e-14
2.72583e-13
3.59593e-14
-1.24751e-13
-3.35799e-15
5.83183e-14
-2.13294e-14
-1.87943e-14
-1.60693e-14
-2.22418e-15
-9.42198e-15
-1.88406e-16
-8.86479e-16
-1.26302e-14
1.40293e-14
1.07743e-14
-7.7613e-15
-1.6444e-15
-5.69545e-15
-8.78402e-15
3.34211e-15
1.44657e-14
-2.2201e-14
2.57982e-15
-2.13185e-14
-1.54457e-14
-5.13425e-16
-2.32708e-15
2.98535e-14
1.25899e-14
2.54262e-14
1.27527e-14
1.96234e-15
1.4109e-15
0
7.08472e-12
-1.09775e-12
-1.49105e-12
4.06647e-13
2.00106e-13
-6.15119e-14
-1.02392e-13
1.03925e-14
4.2882e-14
-1.91797e-15
3.10858e-16
1.95719e-14
1.36567e-14
5.99932e-16
-3.39658e-15
1.26379e-14
-9.69382e-16
-1.52161e-14
-4.8994e-15
2.75878e-14
-2.66712e-15
-3.71175e-14
1.13771e-14
-1.70779e-14
1.37034e-14
2.48458e-14
9.33516e-15
1.14467e-14
3.54574e-15
-2.01594e-14
1.07763e-14
1.54522e-14
-4.5109e-15
3.58527e-14
-1.12626e-14
6.88574e-15
-5.51449e-16
-9.31924e-15
0
-7.77583e-12
-2.6834e-12
1.83618e-12
5.03549e-13
-2.51226e-13
-5.581e-14
1.10867e-13
3.97295e-14
-2.5228e-14
-3.41144e-14
1.9861e-14
1.97273e-14
-4.18829e-16
1.00809e-16
8.18453e-16
1.01432e-14
1.33412e-14
-1.29759e-15
-4.63022e-15
1.78964e-14
-5.15283e-14
-1.09149e-14
-3.60923e-15
-1.8085e-14
2.25891e-14
8.14073e-15
-1.80479e-14
6.34768e-16
-8.25294e-15
-2.39058e-14
4.05286e-14
1.41855e-14
4.72493e-14
1.20572e-14
8.82907e-15
2.35703e-14
-8.76779e-15
-3.32526e-15
0
5.59598e-12
6.65429e-12
-1.38844e-12
-1.34366e-12
2.35145e-13
2.92814e-13
-1.05252e-13
-1.16335e-13
1.08409e-14
2.89854e-16
-3.28794e-17
1.21027e-14
1.06628e-14
1.3585e-14
8.02713e-15
-7.70928e-15
3.25765e-15
-1.19215e-14
1.16118e-14
7.30928e-15
2.25284e-14
5.01904e-16
-6.33502e-15
-7.71253e-15
-1.38136e-14
-1.25028e-15
-5.22319e-15
1.84833e-14
-1.46735e-15
-9.87741e-15
-1.42858e-14
-1.14529e-15
-1.16218e-14
-2.7197e-14
1.14159e-14
1.97334e-14
5.44253e-15
-2.15012e-15
0
-2.85351e-13
-8.61941e-12
3.37593e-13
1.3165e-12
-5.86668e-14
-2.37474e-13
-1.0794e-14
5.75651e-14
1.55165e-15
-3.42375e-14
2.57205e-14
1.95748e-14
-4.78709e-15
6.29117e-15
-2.76579e-14
-2.39242e-15
-7.86986e-15
-1.07714e-14
-3.80058e-15
7.75704e-15
-2.9739e-14
-1.8478e-14
-2.62779e-15
-2.009e-14
3.10466e-14
9.18849e-15
1.3829e-14
2.60706e-14
-9.55535e-15
-2.3552e-14
-1.40565e-14
-5.86482e-15
4.15819e-15
4.50918e-15
6.16739e-15
8.66399e-15
-7.59265e-15
-2.7431e-15
0
-7.01756e-12
2.88669e-12
7.41429e-13
-2.74623e-13
-1.21242e-13
5.47324e-14
3.41216e-14
-4.52888e-14
-1.62143e-14
-1.61569e-14
1.45409e-16
4.3125e-15
8.68584e-15
3.36015e-14
1.44941e-14
-7.90693e-15
4.85554e-15
1.95059e-16
-6.92039e-15
7.66874e-15
-8.82893e-15
1.03826e-14
-8.27369e-15
-1.36674e-14
4.21243e-15
-1.01713e-14
-1.13105e-14
-2.84262e-14
-1.98615e-14
-2.56915e-14
1.27009e-14
8.85177e-15
9.01498e-15
1.83479e-14
-2.46503e-16
-1.75594e-14
4.84954e-15
5.48949e-15
0
9.62963e-12
8.42967e-12
-9.61319e-13
-5.38784e-13
1.30686e-13
6.71691e-14
-9.55673e-14
-2.85586e-14
4.36992e-15
-2.14442e-14
3.77685e-14
2.14218e-14
1.70087e-14
3.28416e-14
-2.2206e-14
-2.08084e-14
3.00826e-15
-2.42904e-14
2.49718e-14
1.39417e-14
5.54415e-15
5.54904e-15
-1.5565e-14
-1.78683e-14
-4.28099e-14
2.95106e-14
-4.28072e-14
-6.51433e-15
3.02174e-15
3.83308e-15
1.44988e-14
-2.94268e-15
-8.22652e-15
-1.87517e-14
-1.18234e-14
-8.76302e-15
6.39944e-16
3.69019e-14
0
-1.73874e-12
-1.13299e-11
4.89705e-13
1.34693e-12
-9.20753e-14
-3.26759e-13
4.55645e-14
1.42219e-13
-4.39232e-15
-4.94599e-14
1.64949e-14
3.9347e-15
-4.97551e-15
4.36362e-15
-2.28928e-14
2.48722e-14
-1.3357e-14
-2.10358e-14
-5.48107e-15
-3.43196e-16
-1.78634e-14
-1.1716e-14
2.72073e-14
-4.5699e-15
6.58062e-14
3.50795e-14
4.0126e-14
3.58985e-15
-2.13134e-15
2.48674e-14
-3.61932e-14
-6.04028e-15
-1.92882e-14
-1.84403e-14
3.99624e-14
-7.17703e-15
3.6262e-14
4.77534e-14
-1.35525e-14
-8.24425e-12
-2.54788e-12
5.30467e-13
-7.20715e-14
-9.24643e-14
6.22705e-15
4.71947e-14
9.72887e-15
-4.11329e-14
-3.19179e-15
-8.19658e-15
-2.43885e-14
3.42113e-14
2.63944e-15
2.67292e-14
3.15719e-14
-8.02202e-15
-1.83952e-14
-6.57808e-15
1.03732e-14
1.57753e-15
1.01538e-14
3.30226e-15
-8.57627e-15
-2.71368e-14
-1.674e-15
-1.16687e-14
-1.19103e-14
2.09585e-14
2.41611e-16
1.17127e-14
7.16435e-15
-6.32908e-15
-2.25567e-14
6.14035e-16
1.62277e-14
-2.06109e-15
2.5044e-14
-2.71051e-14
5.6243e-12
-5.96311e-13
1.0842e-13
-4.06576e-14
1.35525e-14
-1.35525e-14
0
-1.35525e-14
9.46633e-30
2.71051e-14
-6.31089e-30
-1.35525e-14
1.35525e-14
0
-1.35525e-14
-2.71051e-14
1.51461e-28
4.06576e-14
-1.67239e-28
)
;

boundaryField
{
    movingWall
    {
        type            calculated;
        value           nonuniform List<scalar> 
20
(
1.27936e-11
-1.54499e-12
3.52366e-13
-1.35525e-13
5.42101e-14
-2.71051e-14
0
0
-2.71051e-14
2.71051e-14
2.71051e-14
-2.71051e-14
0
2.71051e-14
-2.71051e-14
0
-5.42101e-14
5.42101e-14
2.71051e-14
-2.71051e-14
)
;
    }
    fixedWalls
    {
        type            calculated;
        value           nonuniform List<scalar> 
60
(
1.47994e-11
-2.79724e-11
1.17907e-11
1.10589e-11
-2.1928e-11
1.65612e-11
4.55365e-12
-2.27411e-11
2.17925e-11
-9.54098e-12
-5.82759e-12
1.78622e-11
-2.00577e-11
1.46909e-11
-1.38236e-12
-1.58565e-11
2.16298e-11
-4.77049e-12
-1.78893e-11
1.27936e-11
-2.71051e-14
0
0
0
0
-2.71051e-14
0
0
0
-2.71051e-14
0
0
0
0
0
0
0
0
-2.71051e-14
-2.71051e-14
1.47994e-11
-1.6375e-12
3.28581e-13
-1.09218e-13
1.21055e-14
-7.12707e-15
1.67114e-14
-1.14351e-14
-1.09005e-14
1.76218e-14
-1.15414e-14
1.3613e-14
2.56223e-14
-2.4132e-14
2.84418e-15
-7.34161e-15
1.16205e-14
2.37171e-14
-1.68761e-14
-2.71051e-14
)
;
    }
    frontAndBack
    {
        type            empty;
    }
}


// ************************************************************************* //
