/*--------------------------------*- C++ -*----------------------------------*\
| =========                 |                                                 |
| \\      /  F ield         | OpenFOAM: The Open Source CFD Toolbox           |
|  \\    /   O peration     | Version:  2506                                  |
|   \\  /    A nd           | Website:  www.openfoam.com                      |
|    \\/     M anipulation  |                                                 |
\*---------------------------------------------------------------------------*/
FoamFile
{
    version     2.0;
    format      ascii;
    arch        "LSB;label=32;scalar=64";
    class       surfaceScalarField;
    location    "7.5";
    object      surfaceK;
}
// * * * * * * * * * * * * * * * * * * * * * * * * * * * * * * * * * * * * * //

dimensions      [0 2 -2 0 0 0 0];

internalField   nonuniform List<scalar> 
760
(
4.84181e-06
4.90376e-06
4.84181e-06
4.90375e-06
4.8418e-06
4.90367e-06
4.84181e-06
4.90361e-06
4.8418e-06
4.90357e-06
4.8418e-06
4.90351e-06
4.8418e-06
4.90348e-06
4.8418e-06
4.90343e-06
4.8418e-06
4.90341e-06
4.84179e-06
4.90336e-06
4.8418e-06
4.90334e-06
4.84179e-06
4.90331e-06
4.8418e-06
4.90329e-06
4.84179e-06
4.90327e-06
4.84179e-06
4.90325e-06
4.84179e-06
4.90323e-06
4.84179e-06
4.90322e-06
4.84179e-06
4.90322e-06
4.84179e-06
4.90321e-06
4.90321e-06
4.9657e-06
5.06038e-06
4.96561e-06
5.06038e-06
4.96548e-06
5.06019e-06
4.96538e-06
5.0601e-06
4.96528e-06
5.05998e-06
4.9652e-06
5.0599e-06
4.96511e-06
5.0598e-06
4.96504e-06
5.05973e-06
4.96497e-06
5.05964e-06
4.96491e-06
5.05958e-06
4.96485e-06
5.05951e-06
4.9648e-06
5.05946e-06
4.96476e-06
5.05941e-06
4.96472e-06
5.05937e-06
4.96469e-06
5.05933e-06
4.96467e-06
5.05931e-06
4.96465e-06
5.05928e-06
4.96464e-06
5.05927e-06
4.96463e-06
5.05926e-06
5.05926e-06
5.15506e-06
5.2501e-06
5.15496e-06
5.25009e-06
5.15481e-06
5.24989e-06
5.15471e-06
5.2498e-06
5.1546e-06
5.24966e-06
5.1545e-06
5.24957e-06
5.15441e-06
5.24946e-06
5.15433e-06
5.24938e-06
5.15425e-06
5.24929e-06
5.15419e-06
5.24923e-06
5.15412e-06
5.24915e-06
5.15407e-06
5.2491e-06
5.15402e-06
5.24904e-06
5.15398e-06
5.249e-06
5.15395e-06
5.24896e-06
5.15392e-06
5.24893e-06
5.15391e-06
5.2489e-06
5.15389e-06
5.24889e-06
5.15389e-06
5.24888e-06
5.24888e-06
5.34513e-06
5.4213e-06
5.34502e-06
5.42129e-06
5.34487e-06
5.42108e-06
5.34475e-06
5.42098e-06
5.34463e-06
5.42082e-06
5.34453e-06
5.42074e-06
5.34443e-06
5.42061e-06
5.34434e-06
5.42054e-06
5.34426e-06
5.42043e-06
5.34419e-06
5.42037e-06
5.34412e-06
5.42029e-06
5.34407e-06
5.42023e-06
5.34401e-06
5.42017e-06
5.34397e-06
5.42012e-06
5.34394e-06
5.42008e-06
5.34391e-06
5.42005e-06
5.34389e-06
5.42003e-06
5.34388e-06
5.42001e-06
5.34387e-06
5.42e-06
5.41999e-06
5.49746e-06
5.55055e-06
5.49734e-06
5.55054e-06
5.49719e-06
5.55031e-06
5.49705e-06
5.55021e-06
5.49693e-06
5.55005e-06
5.49682e-06
5.54997e-06
5.49672e-06
5.54983e-06
5.49663e-06
5.54975e-06
5.49654e-06
5.54964e-06
5.49646e-06
5.54957e-06
5.49639e-06
5.54949e-06
5.49633e-06
5.54943e-06
5.49628e-06
5.54936e-06
5.49623e-06
5.54932e-06
5.4962e-06
5.54927e-06
5.49617e-06
5.54924e-06
5.49615e-06
5.54921e-06
5.49613e-06
5.5492e-06
5.49613e-06
5.54919e-06
5.54918e-06
5.60363e-06
5.63769e-06
5.60351e-06
5.63768e-06
5.60334e-06
5.63745e-06
5.60321e-06
5.63735e-06
5.60308e-06
5.63717e-06
5.60297e-06
5.6371e-06
5.60287e-06
5.63694e-06
5.60277e-06
5.63688e-06
5.60268e-06
5.63675e-06
5.6026e-06
5.63669e-06
5.60252e-06
5.63659e-06
5.60246e-06
5.63654e-06
5.6024e-06
5.63646e-06
5.60236e-06
5.63642e-06
5.60232e-06
5.63637e-06
5.60229e-06
5.63634e-06
5.60227e-06
5.63631e-06
5.60225e-06
5.63629e-06
5.60224e-06
5.63628e-06
5.63628e-06
5.67174e-06
5.69292e-06
5.67162e-06
5.69292e-06
5.67146e-06
5.69268e-06
5.67131e-06
5.69258e-06
5.67118e-06
5.69239e-06
5.67107e-06
5.69232e-06
5.67095e-06
5.69216e-06
5.67086e-06
5.69209e-06
5.67076e-06
5.69196e-06
5.67068e-06
5.6919e-06
5.6706e-06
5.6918e-06
5.67054e-06
5.69174e-06
5.67048e-06
5.69167e-06
5.67043e-06
5.69163e-06
5.67039e-06
5.69158e-06
5.67036e-06
5.69154e-06
5.67034e-06
5.69152e-06
5.67033e-06
5.6915e-06
5.67032e-06
5.69149e-06
5.69148e-06
5.7141e-06
5.72765e-06
5.71398e-06
5.72765e-06
5.7138e-06
5.7274e-06
5.71366e-06
5.7273e-06
5.71353e-06
5.72712e-06
5.71341e-06
5.72703e-06
5.7133e-06
5.72688e-06
5.7132e-06
5.72681e-06
5.7131e-06
5.72668e-06
5.71302e-06
5.72661e-06
5.71294e-06
5.72652e-06
5.71288e-06
5.72646e-06
5.71282e-06
5.72639e-06
5.71277e-06
5.72634e-06
5.71273e-06
5.72629e-06
5.7127e-06
5.72626e-06
5.71268e-06
5.72623e-06
5.71266e-06
5.72621e-06
5.71265e-06
5.7262e-06
5.7262e-06
5.74121e-06
5.75072e-06
5.74107e-06
5.75071e-06
5.7409e-06
5.75046e-06
5.74076e-06
5.75037e-06
5.74062e-06
5.75016e-06
5.74051e-06
5.75011e-06
5.74039e-06
5.74993e-06
5.74029e-06
5.74987e-06
5.74019e-06
5.74973e-06
5.74011e-06
5.74968e-06
5.74003e-06
5.74956e-06
5.73997e-06
5.74951e-06
5.73991e-06
5.74944e-06
5.73986e-06
5.74939e-06
5.73982e-06
5.74934e-06
5.73979e-06
5.74931e-06
5.73976e-06
5.74928e-06
5.73975e-06
5.74926e-06
5.73974e-06
5.74925e-06
5.74925e-06
5.76023e-06
5.76789e-06
5.7601e-06
5.76789e-06
5.75993e-06
5.76763e-06
5.75978e-06
5.76754e-06
5.75965e-06
5.76734e-06
5.75953e-06
5.76727e-06
5.75941e-06
5.76711e-06
5.75931e-06
5.76703e-06
5.75921e-06
5.76691e-06
5.75913e-06
5.76683e-06
5.75904e-06
5.76674e-06
5.75899e-06
5.76667e-06
5.75892e-06
5.76662e-06
5.75888e-06
5.76654e-06
5.75883e-06
5.76652e-06
5.7588e-06
5.76646e-06
5.75878e-06
5.76645e-06
5.75876e-06
5.76642e-06
5.75876e-06
5.76642e-06
5.76641e-06
5.77555e-06
5.78262e-06
5.77542e-06
5.78261e-06
5.77524e-06
5.78236e-06
5.7751e-06
5.78225e-06
5.77496e-06
5.78207e-06
5.77485e-06
5.78198e-06
5.77472e-06
5.78183e-06
5.77463e-06
5.78174e-06
5.77452e-06
5.78163e-06
5.77444e-06
5.78154e-06
5.77436e-06
5.78147e-06
5.7743e-06
5.78138e-06
5.77424e-06
5.78134e-06
5.77419e-06
5.78126e-06
5.77415e-06
5.78124e-06
5.77411e-06
5.78118e-06
5.77409e-06
5.78117e-06
5.77407e-06
5.78114e-06
5.77407e-06
5.78113e-06
5.78113e-06
5.78968e-06
5.79687e-06
5.78955e-06
5.79687e-06
5.78937e-06
5.79661e-06
5.78922e-06
5.79651e-06
5.78909e-06
5.79632e-06
5.78897e-06
5.79624e-06
5.78885e-06
5.79607e-06
5.78875e-06
5.79601e-06
5.78865e-06
5.79587e-06
5.78857e-06
5.79581e-06
5.78849e-06
5.7957e-06
5.78842e-06
5.79565e-06
5.78836e-06
5.79557e-06
5.78831e-06
5.79552e-06
5.78827e-06
5.79547e-06
5.78824e-06
5.79544e-06
5.78821e-06
5.79541e-06
5.7882e-06
5.79539e-06
5.78819e-06
5.79538e-06
5.79537e-06
5.80406e-06
5.81179e-06
5.80393e-06
5.81178e-06
5.80375e-06
5.81152e-06
5.8036e-06
5.81142e-06
5.80347e-06
5.81123e-06
5.80334e-06
5.81115e-06
5.80323e-06
5.81098e-06
5.80312e-06
5.81092e-06
5.80302e-06
5.81078e-06
5.80294e-06
5.81072e-06
5.80286e-06
5.81061e-06
5.80279e-06
5.81056e-06
5.80273e-06
5.81048e-06
5.80268e-06
5.81043e-06
5.80264e-06
5.81038e-06
5.80261e-06
5.81035e-06
5.80259e-06
5.81032e-06
5.80257e-06
5.8103e-06
5.80256e-06
5.81029e-06
5.81028e-06
5.81951e-06
5.82797e-06
5.81938e-06
5.82797e-06
5.81919e-06
5.82771e-06
5.81905e-06
5.8276e-06
5.81892e-06
5.82743e-06
5.81879e-06
5.82733e-06
5.81868e-06
5.82718e-06
5.81857e-06
5.8271e-06
5.81847e-06
5.82697e-06
5.81839e-06
5.8269e-06
5.81831e-06
5.8268e-06
5.81824e-06
5.82674e-06
5.81818e-06
5.82666e-06
5.81813e-06
5.82661e-06
5.81809e-06
5.82656e-06
5.81805e-06
5.82653e-06
5.81803e-06
5.8265e-06
5.81801e-06
5.82648e-06
5.81801e-06
5.82647e-06
5.82646e-06
5.83643e-06
5.84561e-06
5.83631e-06
5.8456e-06
5.83612e-06
5.84534e-06
5.83598e-06
5.84523e-06
5.83584e-06
5.84506e-06
5.83572e-06
5.84495e-06
5.8356e-06
5.84481e-06
5.8355e-06
5.84472e-06
5.8354e-06
5.8446e-06
5.83531e-06
5.84451e-06
5.83523e-06
5.84443e-06
5.83516e-06
5.84435e-06
5.8351e-06
5.8443e-06
5.83505e-06
5.84423e-06
5.83501e-06
5.84419e-06
5.83498e-06
5.84414e-06
5.83495e-06
5.84412e-06
5.83494e-06
5.8441e-06
5.83493e-06
5.84409e-06
5.84409e-06
5.85477e-06
5.86424e-06
5.85464e-06
5.86424e-06
5.85445e-06
5.86398e-06
5.85431e-06
5.86387e-06
5.85417e-06
5.86369e-06
5.85404e-06
5.86358e-06
5.85392e-06
5.86344e-06
5.85382e-06
5.86334e-06
5.85372e-06
5.86324e-06
5.85363e-06
5.86313e-06
5.85355e-06
5.86307e-06
5.85348e-06
5.86296e-06
5.85342e-06
5.86294e-06
5.85337e-06
5.86284e-06
5.85333e-06
5.86283e-06
5.85329e-06
5.86276e-06
5.85327e-06
5.86276e-06
5.85325e-06
5.86272e-06
5.85325e-06
5.86272e-06
5.86271e-06
5.87371e-06
5.88263e-06
5.87358e-06
5.88264e-06
5.87339e-06
5.88235e-06
5.87325e-06
5.88226e-06
5.8731e-06
5.88207e-06
5.87298e-06
5.88197e-06
5.87286e-06
5.88183e-06
5.87276e-06
5.88173e-06
5.87265e-06
5.88162e-06
5.87257e-06
5.88153e-06
5.87248e-06
5.88145e-06
5.87242e-06
5.88136e-06
5.87236e-06
5.88131e-06
5.8723e-06
5.88124e-06
5.87226e-06
5.88121e-06
5.87222e-06
5.88115e-06
5.87221e-06
5.88113e-06
5.87219e-06
5.88111e-06
5.87218e-06
5.8811e-06
5.88109e-06
5.89156e-06
5.89865e-06
5.89141e-06
5.89866e-06
5.89122e-06
5.89837e-06
5.89109e-06
5.89829e-06
5.89094e-06
5.89809e-06
5.89082e-06
5.89801e-06
5.8907e-06
5.89784e-06
5.89059e-06
5.89777e-06
5.89049e-06
5.89764e-06
5.89041e-06
5.89757e-06
5.89033e-06
5.89746e-06
5.89026e-06
5.89741e-06
5.89019e-06
5.89733e-06
5.89014e-06
5.89728e-06
5.8901e-06
5.89722e-06
5.89006e-06
5.89719e-06
5.89004e-06
5.89716e-06
5.89002e-06
5.89714e-06
5.89001e-06
5.89713e-06
5.89712e-06
5.90574e-06
5.90899e-06
5.90561e-06
5.90899e-06
5.90544e-06
5.90886e-06
5.90529e-06
5.90881e-06
5.90516e-06
5.90871e-06
5.90503e-06
5.90867e-06
5.90491e-06
5.90858e-06
5.90481e-06
5.90855e-06
5.90471e-06
5.90848e-06
5.90463e-06
5.90845e-06
5.90455e-06
5.90839e-06
5.90448e-06
5.90837e-06
5.90441e-06
5.90832e-06
5.90436e-06
5.9083e-06
5.90432e-06
5.90827e-06
5.90429e-06
5.90826e-06
5.90426e-06
5.90824e-06
5.90425e-06
5.90823e-06
5.90424e-06
5.90823e-06
5.90822e-06
5.91223e-06
5.91223e-06
5.91223e-06
5.91222e-06
5.91222e-06
5.91222e-06
5.91222e-06
5.91222e-06
5.91221e-06
5.91221e-06
5.91221e-06
5.91221e-06
5.91221e-06
5.91221e-06
5.91221e-06
5.91221e-06
5.91221e-06
5.91221e-06
5.91221e-06
)
;

boundaryField
{
    movingWall
    {
        type            calculated;
        value           nonuniform List<scalar> 
20
(
5.91223e-06
5.91223e-06
5.91223e-06
5.91223e-06
5.91222e-06
5.91222e-06
5.91222e-06
5.91222e-06
5.91221e-06
5.91221e-06
5.91221e-06
5.91221e-06
5.91221e-06
5.91221e-06
5.91221e-06
5.91221e-06
5.91221e-06
5.91221e-06
5.91221e-06
5.91221e-06
)
;
    }
    fixedWalls
    {
        type            calculated;
        value           nonuniform List<scalar> 
60
(
4.84182e-06
4.9657e-06
5.15506e-06
5.34513e-06
5.49746e-06
5.60363e-06
5.67174e-06
5.7141e-06
5.74121e-06
5.76023e-06
5.77555e-06
5.78968e-06
5.80406e-06
5.81951e-06
5.83644e-06
5.85477e-06
5.87371e-06
5.89156e-06
5.90574e-06
5.91223e-06
4.84179e-06
4.96463e-06
5.15389e-06
5.34387e-06
5.49612e-06
5.60224e-06
5.67031e-06
5.71265e-06
5.73974e-06
5.75875e-06
5.77407e-06
5.78819e-06
5.80256e-06
5.818e-06
5.83492e-06
5.85325e-06
5.87218e-06
5.89001e-06
5.90424e-06
5.91221e-06
4.84182e-06
4.8418e-06
4.84182e-06
4.84178e-06
4.84183e-06
4.84178e-06
4.84183e-06
4.84177e-06
4.84182e-06
4.84178e-06
4.84181e-06
4.84179e-06
4.8418e-06
4.84179e-06
4.84179e-06
4.84179e-06
4.84179e-06
4.84179e-06
4.84179e-06
4.84179e-06
)
;
    }
    frontAndBack
    {
        type            empty;
    }
}


// ************************************************************************* //
