/*--------------------------------*- C++ -*----------------------------------*\
| =========                 |                                                 |
| \\      /  F ield         | OpenFOAM: The Open Source CFD Toolbox           |
|  \\    /   O peration     | Version:  2506                                  |
|   \\  /    A nd           | Website:  www.openfoam.com                      |
|    \\/     M anipulation  |                                                 |
\*---------------------------------------------------------------------------*/
FoamFile
{
    version     2.0;
    format      ascii;
    arch        "LSB;label=32;scalar=64";
    class       volScalarField;
    location    "7.5";
    object      turbulenceProperties:epsilon;
}
// * * * * * * * * * * * * * * * * * * * * * * * * * * * * * * * * * * * * * //

dimensions      [0 2 -3 0 0 0 0];

internalField   nonuniform List<scalar> 
400
(
1.71231e-06
1.71231e-06
1.7123e-06
1.7123e-06
1.7123e-06
1.7123e-06
1.7123e-06
1.7123e-06
1.7123e-06
1.7123e-06
1.7123e-06
1.7123e-06
1.7123e-06
1.7123e-06
1.7123e-06
1.7123e-06
1.7123e-06
1.7123e-06
1.7123e-06
1.7123e-06
1.77858e-06
1.75501e-06
1.757e-06
1.75782e-06
1.75946e-06
1.76031e-06
1.76195e-06
1.76283e-06
1.76448e-06
1.76537e-06
1.76703e-06
1.76794e-06
1.76961e-06
1.77053e-06
1.77222e-06
1.77316e-06
1.77485e-06
1.77582e-06
1.77667e-06
1.778e-06
1.88146e-06
1.85563e-06
1.85785e-06
1.85876e-06
1.86058e-06
1.86152e-06
1.86334e-06
1.86429e-06
1.86612e-06
1.86708e-06
1.86892e-06
1.86989e-06
1.87174e-06
1.87272e-06
1.87457e-06
1.87557e-06
1.87742e-06
1.87845e-06
1.87937e-06
1.88081e-06
1.98662e-06
1.95884e-06
1.96123e-06
1.96221e-06
1.96416e-06
1.96517e-06
1.96712e-06
1.96815e-06
1.97011e-06
1.97115e-06
1.97312e-06
1.97417e-06
1.97615e-06
1.97721e-06
1.9792e-06
1.98028e-06
1.98226e-06
1.98337e-06
1.98436e-06
1.98591e-06
2.07223e-06
2.04283e-06
2.04535e-06
2.04639e-06
2.04845e-06
2.04952e-06
2.05159e-06
2.05268e-06
2.05475e-06
2.05585e-06
2.05794e-06
2.05904e-06
2.06114e-06
2.06226e-06
2.06437e-06
2.06551e-06
2.06761e-06
2.06878e-06
2.06983e-06
2.07147e-06
2.1326e-06
2.10202e-06
2.10465e-06
2.10572e-06
2.10787e-06
2.10898e-06
2.11113e-06
2.11226e-06
2.11442e-06
2.11556e-06
2.11773e-06
2.11888e-06
2.12106e-06
2.12223e-06
2.12442e-06
2.1256e-06
2.12779e-06
2.12901e-06
2.1301e-06
2.1318e-06
2.17162e-06
2.14027e-06
2.14297e-06
2.14406e-06
2.14627e-06
2.14741e-06
2.14961e-06
2.15076e-06
2.15298e-06
2.15414e-06
2.15637e-06
2.15755e-06
2.15979e-06
2.16098e-06
2.16322e-06
2.16444e-06
2.16668e-06
2.16793e-06
2.16905e-06
2.1708e-06
2.196e-06
2.16418e-06
2.16691e-06
2.16802e-06
2.17026e-06
2.17142e-06
2.17365e-06
2.17482e-06
2.17707e-06
2.17826e-06
2.18052e-06
2.18171e-06
2.18398e-06
2.1852e-06
2.18747e-06
2.18871e-06
2.19099e-06
2.19225e-06
2.19339e-06
2.19516e-06
2.21165e-06
2.17952e-06
2.18227e-06
2.1834e-06
2.18566e-06
2.18682e-06
2.18908e-06
2.19027e-06
2.19253e-06
2.19373e-06
2.19601e-06
2.19722e-06
2.19951e-06
2.20074e-06
2.20304e-06
2.20429e-06
2.20658e-06
2.20786e-06
2.20901e-06
2.2108e-06
2.22266e-06
2.19031e-06
2.19308e-06
2.19422e-06
2.19649e-06
2.19766e-06
2.19993e-06
2.20113e-06
2.20341e-06
2.20461e-06
2.20691e-06
2.20813e-06
2.21044e-06
2.21167e-06
2.21398e-06
2.21524e-06
2.21755e-06
2.21884e-06
2.22e-06
2.2218e-06
2.23154e-06
2.19901e-06
2.2018e-06
2.20294e-06
2.20522e-06
2.20641e-06
2.20869e-06
2.20989e-06
2.21218e-06
2.21339e-06
2.2157e-06
2.21693e-06
2.21925e-06
2.22049e-06
2.22282e-06
2.22408e-06
2.2264e-06
2.2277e-06
2.22886e-06
2.23067e-06
2.23974e-06
2.20705e-06
2.20985e-06
2.211e-06
2.21329e-06
2.21448e-06
2.21678e-06
2.21798e-06
2.22029e-06
2.22151e-06
2.22383e-06
2.22506e-06
2.22739e-06
2.22863e-06
2.23097e-06
2.23224e-06
2.23458e-06
2.23588e-06
2.23705e-06
2.23887e-06
2.24809e-06
2.21524e-06
2.21806e-06
2.21921e-06
2.22152e-06
2.22271e-06
2.22502e-06
2.22623e-06
2.22855e-06
2.22977e-06
2.2321e-06
2.23334e-06
2.23568e-06
2.23693e-06
2.23928e-06
2.24056e-06
2.24291e-06
2.24421e-06
2.24539e-06
2.24722e-06
2.25708e-06
2.22406e-06
2.22689e-06
2.22805e-06
2.23037e-06
2.23157e-06
2.23388e-06
2.2351e-06
2.23743e-06
2.23866e-06
2.24101e-06
2.24225e-06
2.2446e-06
2.24586e-06
2.24823e-06
2.24951e-06
2.25187e-06
2.25318e-06
2.25436e-06
2.2562e-06
2.26695e-06
2.23373e-06
2.23658e-06
2.23774e-06
2.24008e-06
2.24128e-06
2.24361e-06
2.24484e-06
2.24718e-06
2.24842e-06
2.25078e-06
2.25203e-06
2.2544e-06
2.25566e-06
2.25804e-06
2.25933e-06
2.2617e-06
2.26303e-06
2.26421e-06
2.26606e-06
2.27765e-06
2.24422e-06
2.24709e-06
2.24826e-06
2.25061e-06
2.25182e-06
2.25417e-06
2.2554e-06
2.25776e-06
2.259e-06
2.26137e-06
2.26263e-06
2.26502e-06
2.26629e-06
2.26868e-06
2.26998e-06
2.27237e-06
2.2737e-06
2.27489e-06
2.27675e-06
2.28872e-06
2.25508e-06
2.25797e-06
2.25915e-06
2.26151e-06
2.26273e-06
2.26509e-06
2.26633e-06
2.2687e-06
2.26996e-06
2.27234e-06
2.27361e-06
2.27601e-06
2.27729e-06
2.2797e-06
2.281e-06
2.28341e-06
2.28475e-06
2.28595e-06
2.28782e-06
2.29917e-06
2.26534e-06
2.26824e-06
2.26942e-06
2.2718e-06
2.27302e-06
2.2754e-06
2.27665e-06
2.27903e-06
2.28029e-06
2.28269e-06
2.28397e-06
2.28638e-06
2.28767e-06
2.29009e-06
2.29141e-06
2.29382e-06
2.29517e-06
2.29638e-06
2.29827e-06
2.3075e-06
2.27415e-06
2.27696e-06
2.27811e-06
2.28042e-06
2.28162e-06
2.28393e-06
2.28516e-06
2.2875e-06
2.28874e-06
2.2911e-06
2.29237e-06
2.29474e-06
2.29604e-06
2.29843e-06
2.29976e-06
2.30215e-06
2.30352e-06
2.30472e-06
2.30661e-06
2.3113e-06
2.3113e-06
2.3113e-06
2.3113e-06
2.31129e-06
2.3113e-06
2.31129e-06
2.3113e-06
2.31129e-06
2.31129e-06
2.31129e-06
2.31129e-06
2.31129e-06
2.31129e-06
2.31129e-06
2.31129e-06
2.31129e-06
2.31129e-06
2.31129e-06
2.31129e-06
)
;

boundaryField
{
    movingWall
    {
        type            epsilonWallFunction;
        blending        stepwise;
        value           nonuniform List<scalar> 
20
(
2.3113e-06
2.3113e-06
2.3113e-06
2.3113e-06
2.31129e-06
2.3113e-06
2.31129e-06
2.3113e-06
2.31129e-06
2.31129e-06
2.31129e-06
2.31129e-06
2.31129e-06
2.31129e-06
2.31129e-06
2.31129e-06
2.31129e-06
2.31129e-06
2.31129e-06
2.31129e-06
)
;
    }
    fixedWalls
    {
        type            epsilonWallFunction;
        blending        stepwise;
        value           nonuniform List<scalar> 
60
(
1.71231e-06
1.77858e-06
1.88146e-06
1.98662e-06
2.07223e-06
2.1326e-06
2.17162e-06
2.196e-06
2.21165e-06
2.22266e-06
2.23154e-06
2.23974e-06
2.24809e-06
2.25708e-06
2.26695e-06
2.27765e-06
2.28872e-06
2.29917e-06
2.3075e-06
2.3113e-06
1.7123e-06
1.778e-06
1.88081e-06
1.98591e-06
2.07147e-06
2.1318e-06
2.1708e-06
2.19516e-06
2.2108e-06
2.2218e-06
2.23067e-06
2.23887e-06
2.24722e-06
2.2562e-06
2.26606e-06
2.27675e-06
2.28782e-06
2.29827e-06
2.30661e-06
2.31129e-06
1.71231e-06
1.71231e-06
1.7123e-06
1.7123e-06
1.7123e-06
1.7123e-06
1.7123e-06
1.7123e-06
1.7123e-06
1.7123e-06
1.7123e-06
1.7123e-06
1.7123e-06
1.7123e-06
1.7123e-06
1.7123e-06
1.7123e-06
1.7123e-06
1.7123e-06
1.7123e-06
)
;
    }
    frontAndBack
    {
        type            empty;
    }
}


// ************************************************************************* //
