/*--------------------------------*- C++ -*----------------------------------*\
| =========                 |                                                 |
| \\      /  F ield         | OpenFOAM: The Open Source CFD Toolbox           |
|  \\    /   O peration     | Version:  2506                                  |
|   \\  /    A nd           | Website:  www.openfoam.com                      |
|    \\/     M anipulation  |                                                 |
\*---------------------------------------------------------------------------*/
FoamFile
{
    version     2.0;
    format      ascii;
    arch        "LSB;label=32;scalar=64";
    class       volScalarField;
    location    "7.5";
    object      turbulenceProperties:nut;
}
// * * * * * * * * * * * * * * * * * * * * * * * * * * * * * * * * * * * * * //

dimensions      [0 2 -1 0 0 0 0];

internalField   nonuniform List<scalar> 
400
(
1.23219e-06
1.23218e-06
1.23219e-06
1.23218e-06
1.2322e-06
1.23217e-06
1.2322e-06
1.23217e-06
1.2322e-06
1.23218e-06
1.23219e-06
1.23218e-06
1.23219e-06
1.23218e-06
1.23218e-06
1.23218e-06
1.23218e-06
1.23218e-06
1.23218e-06
1.23218e-06
1.24776e-06
1.26451e-06
1.26299e-06
1.26236e-06
1.26112e-06
1.26048e-06
1.25925e-06
1.2586e-06
1.25737e-06
1.25671e-06
1.25549e-06
1.25483e-06
1.25361e-06
1.25294e-06
1.25173e-06
1.25105e-06
1.24985e-06
1.24916e-06
1.24856e-06
1.24763e-06
1.27121e-06
1.2889e-06
1.28725e-06
1.28658e-06
1.28526e-06
1.28457e-06
1.28326e-06
1.28257e-06
1.28127e-06
1.28058e-06
1.27928e-06
1.27859e-06
1.2773e-06
1.27661e-06
1.27533e-06
1.27464e-06
1.27337e-06
1.27267e-06
1.27204e-06
1.27106e-06
1.29433e-06
1.31268e-06
1.31098e-06
1.31028e-06
1.30891e-06
1.30819e-06
1.30683e-06
1.30611e-06
1.30477e-06
1.30405e-06
1.3027e-06
1.30199e-06
1.30065e-06
1.29994e-06
1.29861e-06
1.29789e-06
1.29657e-06
1.29584e-06
1.29519e-06
1.29418e-06
1.31259e-06
1.33148e-06
1.32973e-06
1.32901e-06
1.32759e-06
1.32686e-06
1.32545e-06
1.32472e-06
1.32332e-06
1.32259e-06
1.32121e-06
1.32047e-06
1.31909e-06
1.31835e-06
1.31699e-06
1.31625e-06
1.31489e-06
1.31414e-06
1.31347e-06
1.31243e-06
1.32517e-06
1.34445e-06
1.34266e-06
1.34192e-06
1.34048e-06
1.33973e-06
1.33831e-06
1.33755e-06
1.33613e-06
1.33538e-06
1.33396e-06
1.33321e-06
1.33181e-06
1.33105e-06
1.32966e-06
1.3289e-06
1.32752e-06
1.32676e-06
1.32607e-06
1.32501e-06
1.33319e-06
1.35271e-06
1.3509e-06
1.35017e-06
1.34868e-06
1.34794e-06
1.34648e-06
1.34573e-06
1.34428e-06
1.34353e-06
1.34209e-06
1.34133e-06
1.33991e-06
1.33915e-06
1.33773e-06
1.33697e-06
1.33557e-06
1.33479e-06
1.3341e-06
1.33302e-06
1.33815e-06
1.35783e-06
1.356e-06
1.35525e-06
1.35378e-06
1.35301e-06
1.35156e-06
1.35078e-06
1.34934e-06
1.34856e-06
1.34713e-06
1.34636e-06
1.34492e-06
1.34415e-06
1.34273e-06
1.34196e-06
1.34055e-06
1.33977e-06
1.33907e-06
1.33799e-06
1.34132e-06
1.3611e-06
1.35925e-06
1.35851e-06
1.35701e-06
1.35626e-06
1.35478e-06
1.35401e-06
1.35255e-06
1.35179e-06
1.35033e-06
1.34956e-06
1.34812e-06
1.34735e-06
1.34592e-06
1.34515e-06
1.34373e-06
1.34294e-06
1.34224e-06
1.34115e-06
1.34354e-06
1.36338e-06
1.36153e-06
1.36079e-06
1.35928e-06
1.35853e-06
1.35704e-06
1.35628e-06
1.3548e-06
1.35404e-06
1.35257e-06
1.35181e-06
1.35036e-06
1.34959e-06
1.34815e-06
1.34737e-06
1.34595e-06
1.34517e-06
1.34446e-06
1.34337e-06
1.34532e-06
1.36522e-06
1.36337e-06
1.36261e-06
1.36112e-06
1.36034e-06
1.35887e-06
1.35808e-06
1.35663e-06
1.35584e-06
1.3544e-06
1.3536e-06
1.35218e-06
1.35137e-06
1.34996e-06
1.34916e-06
1.34775e-06
1.34695e-06
1.34625e-06
1.34515e-06
1.34696e-06
1.36691e-06
1.36505e-06
1.3643e-06
1.36279e-06
1.36203e-06
1.36054e-06
1.35977e-06
1.35829e-06
1.35752e-06
1.35605e-06
1.35527e-06
1.35382e-06
1.35304e-06
1.3516e-06
1.35082e-06
1.34939e-06
1.3486e-06
1.34789e-06
1.34679e-06
1.34863e-06
1.36863e-06
1.36676e-06
1.36601e-06
1.3645e-06
1.36373e-06
1.36224e-06
1.36147e-06
1.35999e-06
1.35921e-06
1.35774e-06
1.35696e-06
1.35551e-06
1.35473e-06
1.35328e-06
1.35249e-06
1.35106e-06
1.35027e-06
1.34956e-06
1.34846e-06
1.35042e-06
1.37047e-06
1.3686e-06
1.36784e-06
1.36634e-06
1.36556e-06
1.36407e-06
1.36329e-06
1.36181e-06
1.36103e-06
1.35956e-06
1.35878e-06
1.35731e-06
1.35653e-06
1.35508e-06
1.35429e-06
1.35286e-06
1.35206e-06
1.35135e-06
1.35024e-06
1.35237e-06
1.37248e-06
1.37061e-06
1.36985e-06
1.36834e-06
1.36756e-06
1.36607e-06
1.36528e-06
1.3638e-06
1.36301e-06
1.36154e-06
1.36076e-06
1.35929e-06
1.3585e-06
1.35705e-06
1.35626e-06
1.35482e-06
1.35402e-06
1.35331e-06
1.3522e-06
1.35449e-06
1.37466e-06
1.37279e-06
1.37202e-06
1.3705e-06
1.36972e-06
1.36823e-06
1.36743e-06
1.36595e-06
1.36516e-06
1.36369e-06
1.36289e-06
1.36144e-06
1.36063e-06
1.35919e-06
1.35838e-06
1.35695e-06
1.35614e-06
1.35543e-06
1.35432e-06
1.35667e-06
1.37691e-06
1.37503e-06
1.37426e-06
1.37274e-06
1.37195e-06
1.37046e-06
1.36965e-06
1.36818e-06
1.36737e-06
1.36591e-06
1.36509e-06
1.36364e-06
1.36283e-06
1.36139e-06
1.36057e-06
1.35914e-06
1.35833e-06
1.35761e-06
1.3565e-06
1.35872e-06
1.37902e-06
1.37711e-06
1.37636e-06
1.37483e-06
1.37405e-06
1.37254e-06
1.37175e-06
1.37025e-06
1.36946e-06
1.36797e-06
1.36718e-06
1.3657e-06
1.36491e-06
1.36344e-06
1.36264e-06
1.36119e-06
1.36038e-06
1.35966e-06
1.35855e-06
1.36035e-06
1.38029e-06
1.37847e-06
1.37773e-06
1.37625e-06
1.37549e-06
1.37401e-06
1.37324e-06
1.37178e-06
1.371e-06
1.36954e-06
1.36876e-06
1.3673e-06
1.36651e-06
1.36507e-06
1.36426e-06
1.36283e-06
1.36201e-06
1.3613e-06
1.36018e-06
1.3611e-06
1.36109e-06
1.3611e-06
1.36109e-06
1.3611e-06
1.36109e-06
1.36109e-06
1.36109e-06
1.36109e-06
1.36109e-06
1.36109e-06
1.36109e-06
1.36109e-06
1.36109e-06
1.36109e-06
1.36109e-06
1.36109e-06
1.36109e-06
1.36109e-06
1.36109e-06
)
;

boundaryField
{
    movingWall
    {
        type            nutkWallFunction;
        blending        stepwise;
        value           uniform 0;
    }
    fixedWalls
    {
        type            nutkWallFunction;
        blending        stepwise;
        value           uniform 0;
    }
    frontAndBack
    {
        type            empty;
    }
}


// ************************************************************************* //
