/*--------------------------------*- C++ -*----------------------------------*\
| =========                 |                                                 |
| \\      /  F ield         | OpenFOAM: The Open Source CFD Toolbox           |
|  \\    /   O peration     | Version:  2506                                  |
|   \\  /    A nd           | Website:  www.openfoam.com                      |
|    \\/     M anipulation  |                                                 |
\*---------------------------------------------------------------------------*/
FoamFile
{
    version     2.0;
    format      ascii;
    arch        "LSB;label=32;scalar=64";
    class       volSymmTensorField;
    location    "7.5";
    object      turbulenceProperties:R;
}
// * * * * * * * * * * * * * * * * * * * * * * * * * * * * * * * * * * * * * //

dimensions      [0 2 -2 0 0 0 0];

internalField   nonuniform List<symmTensor> 
400
(
(3.22788e-06 -0 -0 3.22788e-06 -0 3.22788e-06)
(3.22787e-06 3.33984e-20 -0 3.22787e-06 -0 3.22787e-06)
(3.22788e-06 -0 -0 3.22788e-06 -0 3.22788e-06)
(3.22786e-06 -3.33982e-20 -0 3.22786e-06 -0 3.22786e-06)
(3.22788e-06 -3.33988e-20 -0 3.22788e-06 -0 3.22788e-06)
(3.22785e-06 -0 -0 3.22785e-06 -0 3.22785e-06)
(3.22788e-06 -0 -0 3.22788e-06 -0 3.22788e-06)
(3.22785e-06 -0 -0 3.22785e-06 -0 3.22785e-06)
(3.22788e-06 -0 -0 3.22788e-06 -0 3.22788e-06)
(3.22785e-06 -0 -0 3.22785e-06 -0 3.22785e-06)
(3.22787e-06 -0 -0 3.22787e-06 -0 3.22787e-06)
(3.22786e-06 -0 -0 3.22786e-06 -0 3.22786e-06)
(3.22787e-06 -0 -0 3.22787e-06 -0 3.22787e-06)
(3.22786e-06 -0 -0 3.22786e-06 -0 3.22786e-06)
(3.22786e-06 -0 -0 3.22786e-06 -0 3.22786e-06)
(3.22786e-06 -0 -0 3.22786e-06 -0 3.22786e-06)
(3.22786e-06 -0 -0 3.22786e-06 -0 3.22786e-06)
(3.22786e-06 -0 -0 3.22786e-06 -0 3.22786e-06)
(3.22786e-06 -0 -0 3.22786e-06 -0 3.22786e-06)
(3.22786e-06 -0 -0 3.22786e-06 -0 3.22786e-06)
(3.31046e-06 -0 -0 3.31046e-06 -0 3.31046e-06)
(3.31046e-06 -0 -0 3.31046e-06 -0 3.31046e-06)
(3.31035e-06 -0 -0 3.31035e-06 -0 3.31035e-06)
(3.31029e-06 -0 -0 3.31029e-06 -0 3.31029e-06)
(3.31021e-06 -0 -0 3.31021e-06 -0 3.31021e-06)
(3.31016e-06 -0 -0 3.31016e-06 -0 3.31016e-06)
(3.3101e-06 -0 -0 3.3101e-06 -0 3.3101e-06)
(3.31006e-06 -0 -0 3.31006e-06 -0 3.31006e-06)
(3.30999e-06 -0 -0 3.30999e-06 -0 3.30999e-06)
(3.30996e-06 -0 -0 3.30996e-06 -0 3.30996e-06)
(3.30991e-06 -0 -0 3.30991e-06 -0 3.30991e-06)
(3.30988e-06 -0 -0 3.30988e-06 -0 3.30988e-06)
(3.30985e-06 -0 -0 3.30985e-06 -0 3.30985e-06)
(3.30983e-06 -0 -0 3.30983e-06 -0 3.30983e-06)
(3.3098e-06 -0 -0 3.3098e-06 -0 3.3098e-06)
(3.30978e-06 -0 -0 3.30978e-06 -0 3.30978e-06)
(3.30977e-06 -0 -0 3.30977e-06 -0 3.30977e-06)
(3.30976e-06 -0 -0 3.30976e-06 -0 3.30976e-06)
(3.30976e-06 -0 -0 3.30976e-06 -0 3.30976e-06)
(3.30975e-06 -0 -0 3.30975e-06 -0 3.30975e-06)
(3.43671e-06 -0 -0 3.43671e-06 -0 3.43671e-06)
(3.43671e-06 -0 -0 3.43671e-06 -0 3.43671e-06)
(3.43657e-06 -0 -0 3.43657e-06 -0 3.43657e-06)
(3.43651e-06 -0 -0 3.43651e-06 -0 3.43651e-06)
(3.43643e-06 -0 -0 3.43643e-06 -0 3.43643e-06)
(3.43637e-06 -0 -0 3.43637e-06 -0 3.43637e-06)
(3.4363e-06 -0 -0 3.4363e-06 -0 3.4363e-06)
(3.43625e-06 -0 -0 3.43625e-06 -0 3.43625e-06)
(3.43619e-06 -0 -0 3.43619e-06 -0 3.43619e-06)
(3.43615e-06 -0 -0 3.43615e-06 -0 3.43615e-06)
(3.4361e-06 -0 -0 3.4361e-06 -0 3.4361e-06)
(3.43606e-06 -0 -0 3.43606e-06 -0 3.43606e-06)
(3.43603e-06 -0 -0 3.43603e-06 -0 3.43603e-06)
(3.436e-06 -0 -0 3.436e-06 -0 3.436e-06)
(3.43598e-06 -0 -0 3.43598e-06 -0 3.43598e-06)
(3.43596e-06 -0 -0 3.43596e-06 -0 3.43596e-06)
(3.43594e-06 -0 -0 3.43594e-06 -0 3.43594e-06)
(3.43593e-06 -0 -0 3.43593e-06 -0 3.43593e-06)
(3.43593e-06 -0 -0 3.43593e-06 -0 3.43593e-06)
(3.43592e-06 -0 -0 3.43592e-06 -0 3.43592e-06)
(3.56342e-06 -0 -0 3.56342e-06 -0 3.56342e-06)
(3.56342e-06 -0 -0 3.56342e-06 -0 3.56342e-06)
(3.56328e-06 -0 -0 3.56328e-06 -0 3.56328e-06)
(3.56321e-06 -0 -0 3.56321e-06 -0 3.56321e-06)
(3.56312e-06 -0 -0 3.56312e-06 -0 3.56312e-06)
(3.56306e-06 -0 -0 3.56306e-06 -0 3.56306e-06)
(3.56298e-06 -0 -0 3.56298e-06 -0 3.56298e-06)
(3.56293e-06 -0 -0 3.56293e-06 -0 3.56293e-06)
(3.56286e-06 -0 -0 3.56286e-06 -0 3.56286e-06)
(3.56282e-06 -0 -0 3.56282e-06 -0 3.56282e-06)
(3.56277e-06 -0 -0 3.56277e-06 -0 3.56277e-06)
(3.56273e-06 -0 -0 3.56273e-06 -0 3.56273e-06)
(3.56269e-06 -0 -0 3.56269e-06 -0 3.56269e-06)
(3.56266e-06 -0 -0 3.56266e-06 -0 3.56266e-06)
(3.56263e-06 -0 -0 3.56263e-06 -0 3.56263e-06)
(3.56261e-06 -0 -0 3.56261e-06 -0 3.56261e-06)
(3.5626e-06 -0 -0 3.5626e-06 -0 3.5626e-06)
(3.56259e-06 -0 -0 3.56259e-06 -0 3.56259e-06)
(3.56258e-06 -0 -0 3.56258e-06 -0 3.56258e-06)
(3.56258e-06 -0 -0 3.56258e-06 -0 3.56258e-06)
(3.66497e-06 -0 -0 3.66497e-06 -0 3.66497e-06)
(3.66497e-06 -0 -0 3.66497e-06 -0 3.66497e-06)
(3.66482e-06 -0 -0 3.66482e-06 -0 3.66482e-06)
(3.66476e-06 -0 -0 3.66476e-06 -0 3.66476e-06)
(3.66465e-06 -0 -0 3.66465e-06 -0 3.66465e-06)
(3.6646e-06 -0 -0 3.6646e-06 -0 3.6646e-06)
(3.6645e-06 -0 -0 3.6645e-06 -0 3.6645e-06)
(3.66446e-06 -0 -0 3.66446e-06 -0 3.66446e-06)
(3.66438e-06 -0 -0 3.66438e-06 -0 3.66438e-06)
(3.66434e-06 -0 -0 3.66434e-06 -0 3.66434e-06)
(3.66428e-06 -0 -0 3.66428e-06 -0 3.66428e-06)
(3.66424e-06 -0 -0 3.66424e-06 -0 3.66424e-06)
(3.6642e-06 -0 -0 3.6642e-06 -0 3.6642e-06)
(3.66417e-06 -0 -0 3.66417e-06 -0 3.66417e-06)
(3.66414e-06 -0 -0 3.66414e-06 -0 3.66414e-06)
(3.66412e-06 -0 -0 3.66412e-06 -0 3.66412e-06)
(3.6641e-06 -0 -0 3.6641e-06 -0 3.6641e-06)
(3.66409e-06 -0 -0 3.66409e-06 -0 3.66409e-06)
(3.66408e-06 -0 -0 3.66408e-06 -0 3.66408e-06)
(3.66408e-06 -0 -0 3.66408e-06 -0 3.66408e-06)
(3.73576e-06 -0 -0 3.73576e-06 -0 3.73576e-06)
(3.73575e-06 -0 -0 3.73575e-06 -0 3.73575e-06)
(3.7356e-06 -0 -0 3.7356e-06 -0 3.7356e-06)
(3.73553e-06 -0 -0 3.73553e-06 -0 3.73553e-06)
(3.73542e-06 -0 -0 3.73542e-06 -0 3.73542e-06)
(3.73536e-06 -0 -0 3.73536e-06 -0 3.73536e-06)
(3.73527e-06 -0 -0 3.73527e-06 -0 3.73527e-06)
(3.73521e-06 -0 -0 3.73521e-06 -0 3.73521e-06)
(3.73514e-06 -0 -0 3.73514e-06 -0 3.73514e-06)
(3.73509e-06 -0 -0 3.73509e-06 -0 3.73509e-06)
(3.73504e-06 -0 -0 3.73504e-06 -0 3.73504e-06)
(3.735e-06 -0 -0 3.735e-06 -0 3.735e-06)
(3.73495e-06 -0 -0 3.73495e-06 -0 3.73495e-06)
(3.73492e-06 -0 -0 3.73492e-06 -0 3.73492e-06)
(3.73489e-06 -0 -0 3.73489e-06 -0 3.73489e-06)
(3.73487e-06 -0 -0 3.73487e-06 -0 3.73487e-06)
(3.73485e-06 -0 -0 3.73485e-06 -0 3.73485e-06)
(3.73484e-06 -0 -0 3.73484e-06 -0 3.73484e-06)
(3.73483e-06 -0 -0 3.73483e-06 -0 3.73483e-06)
(3.73483e-06 -0 -0 3.73483e-06 -0 3.73483e-06)
(3.78116e-06 -0 -0 3.78116e-06 -0 3.78116e-06)
(3.78116e-06 -0 -0 3.78116e-06 -0 3.78116e-06)
(3.781e-06 -0 -0 3.781e-06 -0 3.781e-06)
(3.78094e-06 -0 -0 3.78094e-06 -0 3.78094e-06)
(3.7808e-06 -0 -0 3.7808e-06 -0 3.7808e-06)
(3.78077e-06 -0 -0 3.78077e-06 -0 3.78077e-06)
(3.78065e-06 -0 -0 3.78065e-06 -0 3.78065e-06)
(3.78062e-06 -0 -0 3.78062e-06 -0 3.78062e-06)
(3.78052e-06 -0 -0 3.78052e-06 -0 3.78052e-06)
(3.78049e-06 -0 -0 3.78049e-06 -0 3.78049e-06)
(3.78041e-06 -0 -0 3.78041e-06 -0 3.78041e-06)
(3.78038e-06 -0 -0 3.78038e-06 -0 3.78038e-06)
(3.78033e-06 -0 -0 3.78033e-06 -0 3.78033e-06)
(3.7803e-06 -0 -0 3.7803e-06 -0 3.7803e-06)
(3.78027e-06 -0 -0 3.78027e-06 -0 3.78027e-06)
(3.78025e-06 -0 -0 3.78025e-06 -0 3.78025e-06)
(3.78023e-06 -0 -0 3.78023e-06 -0 3.78023e-06)
(3.78022e-06 -0 -0 3.78022e-06 -0 3.78022e-06)
(3.78021e-06 -0 -0 3.78021e-06 -0 3.78021e-06)
(3.78021e-06 -0 -0 3.78021e-06 -0 3.78021e-06)
(3.8094e-06 -0 -0 3.8094e-06 -0 3.8094e-06)
(3.8094e-06 -0 -0 3.8094e-06 -0 3.8094e-06)
(3.80923e-06 -0 -0 3.80923e-06 -0 3.80923e-06)
(3.80916e-06 -0 -0 3.80916e-06 -0 3.80916e-06)
(3.80905e-06 -0 -0 3.80905e-06 -0 3.80905e-06)
(3.80899e-06 -0 -0 3.80899e-06 -0 3.80899e-06)
(3.8089e-06 -0 -0 3.8089e-06 -0 3.8089e-06)
(3.80884e-06 -0 -0 3.80884e-06 -0 3.80884e-06)
(3.80876e-06 -0 -0 3.80876e-06 -0 3.80876e-06)
(3.80871e-06 -0 -0 3.80871e-06 -0 3.80871e-06)
(3.80865e-06 -0 -0 3.80865e-06 -0 3.80865e-06)
(3.80861e-06 -0 -0 3.80861e-06 -0 3.80861e-06)
(3.80856e-06 -0 -0 3.80856e-06 -0 3.80856e-06)
(3.80853e-06 -0 -0 3.80853e-06 -0 3.80853e-06)
(3.8085e-06 -0 -0 3.8085e-06 -0 3.8085e-06)
(3.80848e-06 -0 -0 3.80848e-06 -0 3.80848e-06)
(3.80846e-06 -0 -0 3.80846e-06 -0 3.80846e-06)
(3.80845e-06 -0 -0 3.80845e-06 -0 3.80845e-06)
(3.80844e-06 -0 -0 3.80844e-06 -0 3.80844e-06)
(3.80843e-06 -0 -0 3.80843e-06 -0 3.80843e-06)
(3.82747e-06 -0 -0 3.82747e-06 -0 3.82747e-06)
(3.82747e-06 -0 -0 3.82747e-06 -0 3.82747e-06)
(3.8273e-06 -0 -0 3.8273e-06 -0 3.8273e-06)
(3.82723e-06 -0 -0 3.82723e-06 -0 3.82723e-06)
(3.82711e-06 -0 -0 3.82711e-06 -0 3.82711e-06)
(3.82706e-06 -0 -0 3.82706e-06 -0 3.82706e-06)
(3.82695e-06 -0 -0 3.82695e-06 -0 3.82695e-06)
(3.8269e-06 -0 -0 3.8269e-06 -0 3.8269e-06)
(3.82682e-06 -0 -0 3.82682e-06 -0 3.82682e-06)
(3.82677e-06 -0 -0 3.82677e-06 -0 3.82677e-06)
(3.82671e-06 -0 -0 3.82671e-06 -0 3.82671e-06)
(3.82667e-06 -0 -0 3.82667e-06 -0 3.82667e-06)
(3.82662e-06 -0 -0 3.82662e-06 -0 3.82662e-06)
(3.82659e-06 -0 -0 3.82659e-06 -0 3.82659e-06)
(3.82656e-06 -0 -0 3.82656e-06 -0 3.82656e-06)
(3.82654e-06 -0 -0 3.82654e-06 -0 3.82654e-06)
(3.82651e-06 -0 -0 3.82651e-06 -0 3.82651e-06)
(3.8265e-06 -0 -0 3.8265e-06 -0 3.8265e-06)
(3.8265e-06 -0 -0 3.8265e-06 -0 3.8265e-06)
(3.82649e-06 -0 -0 3.82649e-06 -0 3.82649e-06)
(3.84015e-06 -0 -0 3.84015e-06 -0 3.84015e-06)
(3.84015e-06 -0 -0 3.84015e-06 -0 3.84015e-06)
(3.83998e-06 -0 -0 3.83998e-06 -0 3.83998e-06)
(3.83992e-06 -0 -0 3.83992e-06 -0 3.83992e-06)
(3.83978e-06 -0 -0 3.83978e-06 -0 3.83978e-06)
(3.83975e-06 -0 -0 3.83975e-06 -0 3.83975e-06)
(3.83962e-06 -0 -0 3.83962e-06 -0 3.83962e-06)
(3.83959e-06 -0 -0 3.83959e-06 -0 3.83959e-06)
(3.83949e-06 -0 -0 3.83949e-06 -0 3.83949e-06)
(3.83946e-06 -0 -0 3.83946e-06 -0 3.83946e-06)
(3.83937e-06 -0 -0 3.83937e-06 -0 3.83937e-06)
(3.83935e-06 -0 -0 3.83935e-06 -0 3.83935e-06)
(3.8393e-06 -0 -0 3.8393e-06 -0 3.8393e-06)
(3.83927e-06 -0 -0 3.83927e-06 -0 3.83927e-06)
(3.83923e-06 -0 -0 3.83923e-06 -0 3.83923e-06)
(3.83921e-06 -0 -0 3.83921e-06 -0 3.83921e-06)
(3.83919e-06 -0 -0 3.83919e-06 -0 3.83919e-06)
(3.83918e-06 -0 -0 3.83918e-06 -0 3.83918e-06)
(3.83917e-06 -0 -0 3.83917e-06 -0 3.83917e-06)
(3.83917e-06 -0 -0 3.83917e-06 -0 3.83917e-06)
(3.85037e-06 -0 -0 3.85037e-06 -0 3.85037e-06)
(3.85037e-06 -0 -0 3.85037e-06 -0 3.85037e-06)
(3.8502e-06 -0 -0 3.8502e-06 -0 3.8502e-06)
(3.85012e-06 -0 -0 3.85012e-06 -0 3.85012e-06)
(3.85001e-06 -0 -0 3.85001e-06 -0 3.85001e-06)
(3.84994e-06 -0 -0 3.84994e-06 -0 3.84994e-06)
(3.84985e-06 -0 -0 3.84985e-06 -0 3.84985e-06)
(3.84978e-06 -0 -0 3.84978e-06 -0 3.84978e-06)
(3.84972e-06 -0 -0 3.84972e-06 -0 3.84972e-06)
(3.84964e-06 -0 -0 3.84964e-06 -0 3.84964e-06)
(3.84961e-06 -0 -0 3.84961e-06 -0 3.84961e-06)
(3.84954e-06 -0 -0 3.84954e-06 -0 3.84954e-06)
(3.84953e-06 -0 -0 3.84953e-06 -0 3.84953e-06)
(3.84946e-06 -0 -0 3.84946e-06 -0 3.84946e-06)
(3.84946e-06 -0 -0 3.84946e-06 -0 3.84946e-06)
(3.84941e-06 -0 -0 3.84941e-06 -0 3.84941e-06)
(3.84941e-06 -0 -0 3.84941e-06 -0 3.84941e-06)
(3.84938e-06 -0 -0 3.84938e-06 -0 3.84938e-06)
(3.84938e-06 -0 -0 3.84938e-06 -0 3.84938e-06)
(3.84938e-06 -0 -0 3.84938e-06 -0 3.84938e-06)
(3.85979e-06 -0 -0 3.85979e-06 -0 3.85979e-06)
(3.85978e-06 -0 -0 3.85978e-06 -0 3.85978e-06)
(3.85961e-06 -0 -0 3.85961e-06 -0 3.85961e-06)
(3.85955e-06 -0 -0 3.85955e-06 -0 3.85955e-06)
(3.85942e-06 -0 -0 3.85942e-06 -0 3.85942e-06)
(3.85937e-06 -0 -0 3.85937e-06 -0 3.85937e-06)
(3.85926e-06 -0 -0 3.85926e-06 -0 3.85926e-06)
(3.85921e-06 -0 -0 3.85921e-06 -0 3.85921e-06)
(3.85912e-06 -0 -0 3.85912e-06 -0 3.85912e-06)
(3.85908e-06 -0 -0 3.85908e-06 -0 3.85908e-06)
(3.85901e-06 -0 -0 3.85901e-06 -0 3.85901e-06)
(3.85897e-06 -0 -0 3.85897e-06 -0 3.85897e-06)
(3.85892e-06 -0 -0 3.85892e-06 -0 3.85892e-06)
(3.85889e-06 -0 -0 3.85889e-06 -0 3.85889e-06)
(3.85886e-06 -0 -0 3.85886e-06 -0 3.85886e-06)
(3.85884e-06 -0 -0 3.85884e-06 -0 3.85884e-06)
(3.85882e-06 -0 -0 3.85882e-06 -0 3.85882e-06)
(3.8588e-06 -0 -0 3.8588e-06 -0 3.8588e-06)
(3.8588e-06 -0 -0 3.8588e-06 -0 3.8588e-06)
(3.85879e-06 -0 -0 3.85879e-06 -0 3.85879e-06)
(3.86937e-06 -0 -0 3.86937e-06 -0 3.86937e-06)
(3.86937e-06 -0 -0 3.86937e-06 -0 3.86937e-06)
(3.8692e-06 -0 -0 3.8692e-06 -0 3.8692e-06)
(3.86913e-06 -0 -0 3.86913e-06 -0 3.86913e-06)
(3.869e-06 -0 -0 3.869e-06 -0 3.869e-06)
(3.86895e-06 -0 -0 3.86895e-06 -0 3.86895e-06)
(3.86884e-06 -0 -0 3.86884e-06 -0 3.86884e-06)
(3.8688e-06 -0 -0 3.8688e-06 -0 3.8688e-06)
(3.8687e-06 -0 -0 3.8687e-06 -0 3.8687e-06)
(3.86866e-06 -0 -0 3.86866e-06 -0 3.86866e-06)
(3.86859e-06 -0 -0 3.86859e-06 -0 3.86859e-06)
(3.86856e-06 -0 -0 3.86856e-06 -0 3.86856e-06)
(3.8685e-06 -0 -0 3.8685e-06 -0 3.8685e-06)
(3.86847e-06 -0 -0 3.86847e-06 -0 3.86847e-06)
(3.86844e-06 -0 -0 3.86844e-06 -0 3.86844e-06)
(3.86842e-06 -0 -0 3.86842e-06 -0 3.86842e-06)
(3.8684e-06 -0 -0 3.8684e-06 -0 3.8684e-06)
(3.86838e-06 -0 -0 3.86838e-06 -0 3.86838e-06)
(3.86838e-06 -0 -0 3.86838e-06 -0 3.86838e-06)
(3.86837e-06 -0 -0 3.86837e-06 -0 3.86837e-06)
(3.87967e-06 -0 -0 3.87967e-06 -0 3.87967e-06)
(3.87967e-06 -0 -0 3.87967e-06 -0 3.87967e-06)
(3.87949e-06 -0 -0 3.87949e-06 -0 3.87949e-06)
(3.87943e-06 -0 -0 3.87943e-06 -0 3.87943e-06)
(3.87931e-06 -0 -0 3.87931e-06 -0 3.87931e-06)
(3.87925e-06 -0 -0 3.87925e-06 -0 3.87925e-06)
(3.87914e-06 -0 -0 3.87914e-06 -0 3.87914e-06)
(3.87909e-06 -0 -0 3.87909e-06 -0 3.87909e-06)
(3.879e-06 -0 -0 3.879e-06 -0 3.879e-06)
(3.87896e-06 -0 -0 3.87896e-06 -0 3.87896e-06)
(3.87889e-06 -0 -0 3.87889e-06 -0 3.87889e-06)
(3.87885e-06 -0 -0 3.87885e-06 -0 3.87885e-06)
(3.8788e-06 -0 -0 3.8788e-06 -0 3.8788e-06)
(3.87877e-06 -0 -0 3.87877e-06 -0 3.87877e-06)
(3.87874e-06 -0 -0 3.87874e-06 -0 3.87874e-06)
(3.87871e-06 -0 -0 3.87871e-06 -0 3.87871e-06)
(3.87869e-06 -0 -0 3.87869e-06 -0 3.87869e-06)
(3.87868e-06 -0 -0 3.87868e-06 -0 3.87868e-06)
(3.87867e-06 -0 -0 3.87867e-06 -0 3.87867e-06)
(3.87867e-06 -0 -0 3.87867e-06 -0 3.87867e-06)
(3.89096e-06 -0 -0 3.89096e-06 -0 3.89096e-06)
(3.89095e-06 -0 -0 3.89095e-06 -0 3.89095e-06)
(3.89079e-06 -0 -0 3.89079e-06 -0 3.89079e-06)
(3.89071e-06 -0 -0 3.89071e-06 -0 3.89071e-06)
(3.8906e-06 -0 -0 3.8906e-06 -0 3.8906e-06)
(3.89053e-06 -0 -0 3.89053e-06 -0 3.89053e-06)
(3.89043e-06 -0 -0 3.89043e-06 -0 3.89043e-06)
(3.89037e-06 -0 -0 3.89037e-06 -0 3.89037e-06)
(3.89029e-06 -0 -0 3.89029e-06 -0 3.89029e-06)
(3.89024e-06 -0 -0 3.89024e-06 -0 3.89024e-06)
(3.89018e-06 -0 -0 3.89018e-06 -0 3.89018e-06)
(3.89013e-06 -0 -0 3.89013e-06 -0 3.89013e-06)
(3.89008e-06 -0 -0 3.89008e-06 -0 3.89008e-06)
(3.89005e-06 -0 -0 3.89005e-06 -0 3.89005e-06)
(3.89002e-06 -0 -0 3.89002e-06 -0 3.89002e-06)
(3.88999e-06 -0 -0 3.88999e-06 -0 3.88999e-06)
(3.88997e-06 -0 -0 3.88997e-06 -0 3.88997e-06)
(3.88996e-06 -0 -0 3.88996e-06 -0 3.88996e-06)
(3.88995e-06 -0 -0 3.88995e-06 -0 3.88995e-06)
(3.88995e-06 -0 -0 3.88995e-06 -0 3.88995e-06)
(3.90318e-06 -0 -0 3.90318e-06 -0 3.90318e-06)
(3.90318e-06 -0 -0 3.90318e-06 -0 3.90318e-06)
(3.903e-06 -0 -0 3.903e-06 -0 3.903e-06)
(3.90293e-06 -0 -0 3.90293e-06 -0 3.90293e-06)
(3.90281e-06 -0 -0 3.90281e-06 -0 3.90281e-06)
(3.90274e-06 -0 -0 3.90274e-06 -0 3.90274e-06)
(3.90265e-06 -0 -0 3.90265e-06 -0 3.90265e-06)
(3.90258e-06 -0 -0 3.90258e-06 -0 3.90258e-06)
(3.90251e-06 -0 -0 3.90251e-06 -0 3.90251e-06)
(3.90245e-06 -0 -0 3.90245e-06 -0 3.90245e-06)
(3.9024e-06 -0 -0 3.9024e-06 -0 3.9024e-06)
(3.90234e-06 -0 -0 3.90234e-06 -0 3.90234e-06)
(3.90231e-06 -0 -0 3.90231e-06 -0 3.90231e-06)
(3.90225e-06 -0 -0 3.90225e-06 -0 3.90225e-06)
(3.90224e-06 -0 -0 3.90224e-06 -0 3.90224e-06)
(3.9022e-06 -0 -0 3.9022e-06 -0 3.9022e-06)
(3.90219e-06 -0 -0 3.90219e-06 -0 3.90219e-06)
(3.90217e-06 -0 -0 3.90217e-06 -0 3.90217e-06)
(3.90217e-06 -0 -0 3.90217e-06 -0 3.90217e-06)
(3.90216e-06 -0 -0 3.90216e-06 -0 3.90216e-06)
(3.91581e-06 -0 -0 3.91581e-06 -0 3.91581e-06)
(3.91581e-06 -0 -0 3.91581e-06 -0 3.91581e-06)
(3.91563e-06 -0 -0 3.91563e-06 -0 3.91563e-06)
(3.91556e-06 -0 -0 3.91556e-06 -0 3.91556e-06)
(3.91544e-06 -0 -0 3.91544e-06 -0 3.91544e-06)
(3.91537e-06 -0 -0 3.91537e-06 -0 3.91537e-06)
(3.91528e-06 -0 -0 3.91528e-06 -0 3.91528e-06)
(3.9152e-06 -0 -0 3.9152e-06 -0 3.9152e-06)
(3.91514e-06 -0 -0 3.91514e-06 -0 3.91514e-06)
(3.91506e-06 -0 -0 3.91506e-06 -0 3.91506e-06)
(3.91503e-06 -0 -0 3.91503e-06 -0 3.91503e-06)
(3.91495e-06 -0 -0 3.91495e-06 -0 3.91495e-06)
(3.91494e-06 -0 -0 3.91494e-06 -0 3.91494e-06)
(3.91487e-06 -0 -0 3.91487e-06 -0 3.91487e-06)
(3.91487e-06 -0 -0 3.91487e-06 -0 3.91487e-06)
(3.91482e-06 -0 -0 3.91482e-06 -0 3.91482e-06)
(3.91482e-06 -0 -0 3.91482e-06 -0 3.91482e-06)
(3.91479e-06 -0 -0 3.91479e-06 -0 3.91479e-06)
(3.91479e-06 -0 -0 3.91479e-06 -0 3.91479e-06)
(3.91479e-06 -0 -0 3.91479e-06 -0 3.91479e-06)
(3.9277e-06 -0 -0 3.9277e-06 -0 3.9277e-06)
(3.92771e-06 -0 -0 3.92771e-06 -0 3.92771e-06)
(3.9275e-06 -0 -0 3.9275e-06 -0 3.9275e-06)
(3.92746e-06 -0 -0 3.92746e-06 -0 3.92746e-06)
(3.92732e-06 -0 -0 3.92732e-06 -0 3.92732e-06)
(3.92726e-06 -0 -0 3.92726e-06 -0 3.92726e-06)
(3.92716e-06 -0 -0 3.92716e-06 -0 3.92716e-06)
(3.9271e-06 -0 -0 3.9271e-06 -0 3.9271e-06)
(3.92702e-06 -0 -0 3.92702e-06 -0 3.92702e-06)
(3.92697e-06 -0 -0 3.92697e-06 -0 3.92697e-06)
(3.9269e-06 -0 -0 3.9269e-06 -0 3.9269e-06)
(3.92686e-06 -0 -0 3.92686e-06 -0 3.92686e-06)
(3.92681e-06 -0 -0 3.92681e-06 -0 3.92681e-06)
(3.92678e-06 -0 -0 3.92678e-06 -0 3.92678e-06)
(3.92674e-06 -0 -0 3.92674e-06 -0 3.92674e-06)
(3.92672e-06 -0 -0 3.92672e-06 -0 3.92672e-06)
(3.9267e-06 -0 -0 3.9267e-06 -0 3.9267e-06)
(3.92669e-06 -0 -0 3.92669e-06 -0 3.92669e-06)
(3.92668e-06 -0 -0 3.92668e-06 -0 3.92668e-06)
(3.92667e-06 -0 -0 3.92667e-06 -0 3.92667e-06)
(3.93716e-06 -0 -0 3.93716e-06 -0 3.93716e-06)
(3.93716e-06 -0 -0 3.93716e-06 -0 3.93716e-06)
(3.93699e-06 -0 -0 3.93699e-06 -0 3.93699e-06)
(3.93693e-06 -0 -0 3.93693e-06 -0 3.93693e-06)
(3.93679e-06 -0 -0 3.93679e-06 -0 3.93679e-06)
(3.93675e-06 -0 -0 3.93675e-06 -0 3.93675e-06)
(3.93663e-06 -0 -0 3.93663e-06 -0 3.93663e-06)
(3.93659e-06 -0 -0 3.93659e-06 -0 3.93659e-06)
(3.9365e-06 -0 -0 3.9365e-06 -0 3.9365e-06)
(3.93646e-06 -0 -0 3.93646e-06 -0 3.93646e-06)
(3.93638e-06 -0 -0 3.93638e-06 -0 3.93638e-06)
(3.93635e-06 -0 -0 3.93635e-06 -0 3.93635e-06)
(3.93629e-06 -0 -0 3.93629e-06 -0 3.93629e-06)
(3.93626e-06 -0 -0 3.93626e-06 -0 3.93626e-06)
(3.93623e-06 -0 -0 3.93623e-06 -0 3.93623e-06)
(3.9362e-06 -0 -0 3.9362e-06 -0 3.9362e-06)
(3.93618e-06 -0 -0 3.93618e-06 -0 3.93618e-06)
(3.93617e-06 -0 -0 3.93617e-06 -0 3.93617e-06)
(3.93616e-06 -0 -0 3.93616e-06 -0 3.93616e-06)
(3.93616e-06 -0 -0 3.93616e-06 -0 3.93616e-06)
(3.94149e-06 -0 -0 3.94149e-06 -0 3.94149e-06)
(3.94149e-06 -0 -0 3.94149e-06 -0 3.94149e-06)
(3.94148e-06 -0 -0 3.94148e-06 -0 3.94148e-06)
(3.94148e-06 -0 -0 3.94148e-06 -0 3.94148e-06)
(3.94148e-06 -0 -0 3.94148e-06 -0 3.94148e-06)
(3.94148e-06 -0 -0 3.94148e-06 -0 3.94148e-06)
(3.94148e-06 -0 -0 3.94148e-06 -0 3.94148e-06)
(3.94148e-06 -0 -0 3.94148e-06 -0 3.94148e-06)
(3.94148e-06 -0 -0 3.94148e-06 -0 3.94148e-06)
(3.94148e-06 -0 -0 3.94148e-06 -0 3.94148e-06)
(3.94148e-06 -0 -0 3.94148e-06 -0 3.94148e-06)
(3.94147e-06 -0 -0 3.94147e-06 -0 3.94147e-06)
(3.94147e-06 -0 -0 3.94147e-06 -0 3.94147e-06)
(3.94147e-06 -0 -0 3.94147e-06 -0 3.94147e-06)
(3.94147e-06 -0 -0 3.94147e-06 -0 3.94147e-06)
(3.94147e-06 -0 -0 3.94147e-06 -0 3.94147e-06)
(3.94147e-06 -0 -0 3.94147e-06 -0 3.94147e-06)
(3.94147e-06 -0 -0 3.94147e-06 -0 3.94147e-06)
(3.94147e-06 -0 -0 3.94147e-06 -0 3.94147e-06)
(3.94147e-06 -0 -0 3.94147e-06 -0 3.94147e-06)
)
;

boundaryField
{
    movingWall
    {
        type            kqRWallFunction;
        value           nonuniform List<symmTensor> 
20
(
(3.94149e-06 -0 -0 3.94149e-06 -0 3.94149e-06)
(3.94149e-06 -0 -0 3.94149e-06 -0 3.94149e-06)
(3.94148e-06 -0 -0 3.94148e-06 -0 3.94148e-06)
(3.94148e-06 -0 -0 3.94148e-06 -0 3.94148e-06)
(3.94148e-06 -0 -0 3.94148e-06 -0 3.94148e-06)
(3.94148e-06 -0 -0 3.94148e-06 -0 3.94148e-06)
(3.94148e-06 -0 -0 3.94148e-06 -0 3.94148e-06)
(3.94148e-06 -0 -0 3.94148e-06 -0 3.94148e-06)
(3.94148e-06 -0 -0 3.94148e-06 -0 3.94148e-06)
(3.94148e-06 -0 -0 3.94148e-06 -0 3.94148e-06)
(3.94148e-06 -0 -0 3.94148e-06 -0 3.94148e-06)
(3.94147e-06 -0 -0 3.94147e-06 -0 3.94147e-06)
(3.94147e-06 -0 -0 3.94147e-06 -0 3.94147e-06)
(3.94147e-06 -0 -0 3.94147e-06 -0 3.94147e-06)
(3.94147e-06 -0 -0 3.94147e-06 -0 3.94147e-06)
(3.94147e-06 -0 -0 3.94147e-06 -0 3.94147e-06)
(3.94147e-06 -0 -0 3.94147e-06 -0 3.94147e-06)
(3.94147e-06 -0 -0 3.94147e-06 -0 3.94147e-06)
(3.94147e-06 -0 -0 3.94147e-06 -0 3.94147e-06)
(3.94147e-06 -0 -0 3.94147e-06 -0 3.94147e-06)
)
;
    }
    fixedWalls
    {
        type            kqRWallFunction;
        value           nonuniform List<symmTensor> 
60
(
(3.22788e-06 -0 -0 3.22788e-06 -0 3.22788e-06)
(3.31046e-06 -0 -0 3.31046e-06 -0 3.31046e-06)
(3.43671e-06 -0 -0 3.43671e-06 -0 3.43671e-06)
(3.56342e-06 -0 -0 3.56342e-06 -0 3.56342e-06)
(3.66497e-06 -0 -0 3.66497e-06 -0 3.66497e-06)
(3.73576e-06 -0 -0 3.73576e-06 -0 3.73576e-06)
(3.78116e-06 -0 -0 3.78116e-06 -0 3.78116e-06)
(3.8094e-06 -0 -0 3.8094e-06 -0 3.8094e-06)
(3.82747e-06 -0 -0 3.82747e-06 -0 3.82747e-06)
(3.84015e-06 -0 -0 3.84015e-06 -0 3.84015e-06)
(3.85037e-06 -0 -0 3.85037e-06 -0 3.85037e-06)
(3.85979e-06 -0 -0 3.85979e-06 -0 3.85979e-06)
(3.86937e-06 -0 -0 3.86937e-06 -0 3.86937e-06)
(3.87967e-06 -0 -0 3.87967e-06 -0 3.87967e-06)
(3.89096e-06 -0 -0 3.89096e-06 -0 3.89096e-06)
(3.90318e-06 -0 -0 3.90318e-06 -0 3.90318e-06)
(3.91581e-06 -0 -0 3.91581e-06 -0 3.91581e-06)
(3.9277e-06 -0 -0 3.9277e-06 -0 3.9277e-06)
(3.93716e-06 -0 -0 3.93716e-06 -0 3.93716e-06)
(3.94149e-06 -0 -0 3.94149e-06 -0 3.94149e-06)
(3.22786e-06 -0 -0 3.22786e-06 -0 3.22786e-06)
(3.30975e-06 -0 -0 3.30975e-06 -0 3.30975e-06)
(3.43592e-06 -0 -0 3.43592e-06 -0 3.43592e-06)
(3.56258e-06 -0 -0 3.56258e-06 -0 3.56258e-06)
(3.66408e-06 -0 -0 3.66408e-06 -0 3.66408e-06)
(3.73483e-06 -0 -0 3.73483e-06 -0 3.73483e-06)
(3.78021e-06 -0 -0 3.78021e-06 -0 3.78021e-06)
(3.80843e-06 -0 -0 3.80843e-06 -0 3.80843e-06)
(3.82649e-06 -0 -0 3.82649e-06 -0 3.82649e-06)
(3.83917e-06 -0 -0 3.83917e-06 -0 3.83917e-06)
(3.84938e-06 -0 -0 3.84938e-06 -0 3.84938e-06)
(3.85879e-06 -0 -0 3.85879e-06 -0 3.85879e-06)
(3.86837e-06 -0 -0 3.86837e-06 -0 3.86837e-06)
(3.87867e-06 -0 -0 3.87867e-06 -0 3.87867e-06)
(3.88995e-06 -0 -0 3.88995e-06 -0 3.88995e-06)
(3.90216e-06 -0 -0 3.90216e-06 -0 3.90216e-06)
(3.91479e-06 -0 -0 3.91479e-06 -0 3.91479e-06)
(3.92667e-06 -0 -0 3.92667e-06 -0 3.92667e-06)
(3.93616e-06 -0 -0 3.93616e-06 -0 3.93616e-06)
(3.94147e-06 -0 -0 3.94147e-06 -0 3.94147e-06)
(3.22788e-06 -0 -0 3.22788e-06 -0 3.22788e-06)
(3.22787e-06 -0 -0 3.22787e-06 -0 3.22787e-06)
(3.22788e-06 -0 -0 3.22788e-06 -0 3.22788e-06)
(3.22786e-06 -0 -0 3.22786e-06 -0 3.22786e-06)
(3.22788e-06 -0 -0 3.22788e-06 -0 3.22788e-06)
(3.22785e-06 -0 -0 3.22785e-06 -0 3.22785e-06)
(3.22788e-06 -0 -0 3.22788e-06 -0 3.22788e-06)
(3.22785e-06 -0 -0 3.22785e-06 -0 3.22785e-06)
(3.22788e-06 -0 -0 3.22788e-06 -0 3.22788e-06)
(3.22785e-06 -0 -0 3.22785e-06 -0 3.22785e-06)
(3.22787e-06 -0 -0 3.22787e-06 -0 3.22787e-06)
(3.22786e-06 -0 -0 3.22786e-06 -0 3.22786e-06)
(3.22787e-06 -0 -0 3.22787e-06 -0 3.22787e-06)
(3.22786e-06 -0 -0 3.22786e-06 -0 3.22786e-06)
(3.22786e-06 -0 -0 3.22786e-06 -0 3.22786e-06)
(3.22786e-06 -0 -0 3.22786e-06 -0 3.22786e-06)
(3.22786e-06 -0 -0 3.22786e-06 -0 3.22786e-06)
(3.22786e-06 -0 -0 3.22786e-06 -0 3.22786e-06)
(3.22786e-06 -0 -0 3.22786e-06 -0 3.22786e-06)
(3.22786e-06 -0 -0 3.22786e-06 -0 3.22786e-06)
)
;
    }
    frontAndBack
    {
        type            empty;
    }
}


// ************************************************************************* //
