/*--------------------------------*- C++ -*----------------------------------*\
| =========                 |                                                 |
| \\      /  F ield         | OpenFOAM: The Open Source CFD Toolbox           |
|  \\    /   O peration     | Version:  2506                                  |
|   \\  /    A nd           | Website:  www.openfoam.com                      |
|    \\/     M anipulation  |                                                 |
\*---------------------------------------------------------------------------*/
FoamFile
{
    version     2.0;
    format      ascii;
    arch        "LSB;label=32;scalar=64";
    class       volScalarField;
    location    "7.5";
    object      turbulenceProperties:omega;
}
// * * * * * * * * * * * * * * * * * * * * * * * * * * * * * * * * * * * * * //

dimensions      [0 0 -1 0 0 0 0];

internalField   nonuniform List<scalar> 
400
(
3.92944
3.92945
3.92943
3.92946
3.92942
3.92946
3.92942
3.92946
3.92942
3.92945
3.92943
3.92944
3.92944
3.92944
3.92944
3.92944
3.92944
3.92944
3.92944
3.92944
3.9797
3.92696
3.93156
3.93345
3.93722
3.93918
3.94294
3.94494
3.94871
3.95074
3.95452
3.95658
3.96037
3.96246
3.96626
3.9684
3.97219
3.97438
3.97627
3.97926
4.05525
3.99959
4.00454
4.00656
4.01058
4.01267
4.01668
4.01879
4.0228
4.02492
4.02894
4.03108
4.0351
4.03725
4.04127
4.04346
4.04746
4.04968
4.05168
4.05479
4.12965
4.07192
4.07704
4.07914
4.08331
4.08548
4.08963
4.09183
4.09598
4.09818
4.10235
4.10456
4.10874
4.11097
4.11514
4.1174
4.12155
4.12386
4.12593
4.12915
4.18827
4.12884
4.13411
4.13626
4.14057
4.14278
4.14708
4.14932
4.15361
4.15587
4.16016
4.16243
4.16673
4.16903
4.17332
4.17565
4.17992
4.1823
4.18443
4.18774
4.2286
4.16798
4.17336
4.17556
4.17994
4.18222
4.18657
4.18888
4.19324
4.19555
4.19993
4.20225
4.20663
4.20898
4.21335
4.21573
4.22009
4.22252
4.22469
4.22807
4.25427
4.19287
4.19831
4.20053
4.205
4.20726
4.21171
4.21401
4.21846
4.22078
4.22523
4.22757
4.23201
4.23439
4.23882
4.24123
4.24564
4.2481
4.2503
4.25372
4.27014
4.20826
4.21375
4.216
4.22047
4.22279
4.22724
4.22959
4.23404
4.2364
4.24086
4.24324
4.24771
4.2501
4.25457
4.257
4.26144
4.26392
4.26614
4.26959
4.28026
4.21808
4.22361
4.22585
4.23036
4.23268
4.23716
4.23951
4.24399
4.24636
4.25085
4.25323
4.25772
4.26013
4.26461
4.26705
4.27153
4.27401
4.27624
4.27971
4.28737
4.22496
4.2305
4.23275
4.23729
4.23959
4.24412
4.24645
4.25097
4.25332
4.25785
4.26023
4.26474
4.26716
4.27166
4.27411
4.27859
4.28109
4.28332
4.28681
4.29307
4.2305
4.23605
4.23832
4.24285
4.24519
4.24968
4.25208
4.25655
4.25897
4.26345
4.26589
4.27036
4.27283
4.2773
4.27979
4.28427
4.28678
4.28902
4.29251
4.29833
4.23561
4.24117
4.24344
4.24799
4.25033
4.25485
4.25722
4.26174
4.26413
4.26865
4.27106
4.27559
4.27802
4.28254
4.28501
4.28951
4.29202
4.29427
4.29777
4.30368
4.24079
4.24638
4.24865
4.25321
4.25555
4.26009
4.26246
4.267
4.26938
4.27393
4.27633
4.28088
4.28331
4.28785
4.29032
4.29483
4.29735
4.2996
4.30311
4.30941
4.24636
4.25197
4.25425
4.25881
4.26116
4.26571
4.26809
4.27264
4.27503
4.27959
4.282
4.28656
4.289
4.29355
4.29602
4.30055
4.30307
4.30533
4.30885
4.3157
4.25247
4.25808
4.26038
4.26494
4.26731
4.27186
4.27426
4.27881
4.28122
4.28578
4.2882
4.29277
4.29522
4.29978
4.30226
4.30681
4.30934
4.3116
4.31513
4.32249
4.25906
4.26469
4.26699
4.27158
4.27395
4.27851
4.28092
4.28548
4.28791
4.29247
4.29492
4.29948
4.30196
4.30651
4.30902
4.31357
4.31611
4.31838
4.32192
4.3295
4.26587
4.27151
4.27383
4.27842
4.28081
4.28538
4.28781
4.29236
4.29482
4.29937
4.30185
4.30641
4.30891
4.31346
4.316
4.32054
4.32311
4.32538
4.32893
4.33609
4.27228
4.27798
4.28026
4.28488
4.28727
4.29186
4.29427
4.29886
4.30129
4.3059
4.30834
4.31296
4.31542
4.32003
4.32254
4.32712
4.32968
4.33196
4.33553
4.34134
4.27861
4.28408
4.28631
4.2908
4.29311
4.29759
4.29995
4.30444
4.30683
4.31135
4.31377
4.3183
4.32077
4.32531
4.32783
4.33236
4.33495
4.33722
4.34078
4.34373
4.34373
4.34373
4.34373
4.34372
4.34373
4.34372
4.34373
4.34372
4.34372
4.34372
4.34372
4.34372
4.34372
4.34372
4.34372
4.34372
4.34372
4.34372
4.34372
)
;

boundaryField
{
    movingWall
    {
        type            calculated;
        value           nonuniform List<scalar> 
20
(
4.34373
4.34373
4.34373
4.34373
4.34372
4.34373
4.34372
4.34373
4.34372
4.34372
4.34372
4.34372
4.34372
4.34372
4.34372
4.34372
4.34372
4.34372
4.34372
4.34372
)
;
    }
    fixedWalls
    {
        type            calculated;
        value           nonuniform List<scalar> 
60
(
3.92944
3.9797
4.05525
4.12965
4.18827
4.2286
4.25427
4.27014
4.28026
4.28737
4.29307
4.29833
4.30368
4.30941
4.3157
4.32249
4.3295
4.33609
4.34134
4.34373
3.92944
3.97926
4.05479
4.12915
4.18774
4.22807
4.25372
4.26959
4.27971
4.28681
4.29251
4.29777
4.30311
4.30885
4.31513
4.32192
4.32893
4.33553
4.34078
4.34372
3.92944
3.92945
3.92943
3.92946
3.92942
3.92946
3.92942
3.92946
3.92942
3.92945
3.92943
3.92944
3.92944
3.92944
3.92944
3.92944
3.92944
3.92944
3.92944
3.92944
)
;
    }
    frontAndBack
    {
        type            empty;
    }
}


// ************************************************************************* //
