/*--------------------------------*- C++ -*----------------------------------*\
| =========                 |                                                 |
| \\      /  F ield         | OpenFOAM: The Open Source CFD Toolbox           |
|  \\    /   O peration     | Version:  2506                                  |
|   \\  /    A nd           | Website:  www.openfoam.com                      |
|    \\/     M anipulation  |                                                 |
\*---------------------------------------------------------------------------*/
FoamFile
{
    version     2.0;
    format      ascii;
    arch        "LSB;label=32;scalar=64";
    class       volScalarField;
    location    "7.5";
    object      Uy;
}
// * * * * * * * * * * * * * * * * * * * * * * * * * * * * * * * * * * * * * //

dimensions      [0 1 -1 0 0 0 0];

internalField   nonuniform List<scalar> 
400
(
1.62397e-13
-3.56804e-14
8.41784e-15
-1.73986e-15
4.08818e-16
-1.06549e-16
2.71802e-17
1.57726e-17
4.69792e-17
9.78255e-17
7.61374e-17
1.9907e-17
-8.5802e-18
6.59035e-17
8.14427e-17
8.59353e-19
-1.70115e-17
3.66826e-17
7.97417e-17
3.10295e-17
-1.1986e-15
3.31899e-16
1.79299e-17
1.05579e-16
-1.67115e-17
3.52787e-17
1.39934e-16
1.40927e-16
1.15066e-16
7.83926e-17
7.94989e-17
1.16223e-16
-6.24746e-18
-3.61725e-17
-5.3001e-17
-7.42754e-17
-1.37834e-16
-7.05625e-17
2.25477e-17
4.29447e-17
-1.4246e-13
3.11885e-14
-7.26737e-15
1.63805e-15
-3.55628e-16
5.55755e-17
-8.1724e-18
8.17504e-17
3.70848e-18
-1.10284e-16
-1.01523e-16
-7.54401e-17
-3.33911e-17
-6.12173e-18
-3.34261e-17
-2.86981e-17
-8.73036e-17
-1.58864e-16
-1.26232e-16
-1.17434e-17
1.29739e-13
-2.85199e-14
6.80987e-15
-1.44203e-15
3.58797e-16
-1.30359e-16
-1.02498e-16
-6.04634e-17
-1.09605e-16
-1.3243e-16
-9.32072e-17
-1.16053e-16
3.26653e-17
1.29609e-16
1.00444e-16
1.39606e-17
-1.67028e-17
-1.33036e-16
-1.11668e-16
-5.36575e-17
-1.84607e-14
4.22704e-15
-9.80745e-16
1.57938e-16
-6.32467e-18
5.57491e-18
-2.90468e-17
-7.76393e-17
-6.37631e-17
-6.01704e-17
9.34868e-17
1.44177e-16
8.88007e-17
8.05005e-17
7.49334e-17
-5.67935e-18
-9.70012e-17
-1.24797e-16
-5.47422e-17
-3.75843e-17
-1.13875e-13
2.47293e-14
-6.0118e-15
1.24918e-15
-2.11069e-16
1.32886e-16
-1.52664e-17
-1.48487e-16
-1.71217e-16
-1.15294e-16
-3.33837e-17
-7.29483e-17
-3.24028e-17
1.11305e-16
2.13386e-16
2.28766e-16
6.62569e-17
-1.53926e-18
-3.00262e-17
-2.68554e-17
1.67249e-13
-3.68251e-14
8.49774e-15
-1.92584e-15
4.87611e-16
8.62964e-17
1.39682e-16
-6.91566e-17
2.24459e-17
1.2679e-16
2.34985e-17
-6.72265e-17
8.36457e-17
1.83237e-16
1.81094e-16
8.63183e-17
3.65003e-17
3.28377e-17
5.7681e-17
-1.31822e-19
-7.03095e-14
1.49754e-14
-3.64379e-15
7.06821e-16
-2.73964e-16
-2.93128e-17
-7.17413e-17
-1.1891e-17
6.4681e-17
3.41157e-17
-2.15786e-17
-1.3352e-19
2.53963e-17
-2.83526e-17
-1.05438e-16
-2.07831e-16
-6.1081e-17
1.35613e-16
2.18749e-16
3.75888e-17
-6.53596e-14
1.38437e-14
-3.44336e-15
6.07014e-16
-2.87738e-16
-7.35333e-17
-8.86259e-17
-1.81559e-17
-9.92418e-17
-1.53224e-16
-9.11488e-17
9.94963e-17
5.80851e-17
-8.43637e-17
-1.36136e-16
-2.85163e-17
1.07588e-16
2.35139e-16
1.68066e-16
-1.1247e-17
1.54992e-13
-3.41702e-14
7.94387e-15
-1.80542e-15
3.71923e-16
-1.60182e-16
-3.93385e-17
-9.92884e-17
-7.17995e-17
3.78748e-17
1.46258e-17
2.56576e-17
5.70201e-17
-4.75209e-18
2.37144e-17
1.29768e-16
1.11284e-16
6.7934e-17
-4.69748e-17
-6.2728e-17
-1.65664e-13
3.64429e-14
-8.27622e-15
1.98761e-15
-3.09033e-16
1.20297e-16
-1.85315e-17
7.58717e-17
5.5092e-17
4.84744e-17
-4.96775e-17
-1.23657e-16
-2.12828e-17
2.85868e-17
4.47492e-17
4.4129e-17
1.95159e-17
-8.84666e-17
-1.67504e-16
-5.72117e-17
9.11627e-14
-1.95647e-14
4.45254e-15
-1.10677e-15
1.47387e-16
-2.58113e-17
3.95589e-17
1.23816e-16
9.88816e-17
5.0873e-17
-4.01346e-17
5.82429e-17
2.43838e-16
3.57801e-16
2.09045e-16
8.88589e-17
1.08278e-16
1.56423e-17
-6.43e-17
-7.60888e-18
1.37568e-14
-3.26855e-15
4.85977e-16
-3.71725e-16
-1.74628e-16
-1.73511e-16
-1.0507e-16
-5.62217e-17
3.66429e-17
6.52654e-17
9.70587e-17
1.02541e-16
9.39706e-17
1.20559e-16
4.13997e-17
2.66218e-18
1.57263e-17
4.11857e-17
5.3271e-17
3.17275e-17
-1.02486e-13
2.20374e-14
-5.29948e-15
9.73872e-16
-3.78592e-16
-4.88796e-17
-8.84709e-17
-2.96646e-17
6.56124e-17
9.93023e-17
1.8787e-16
2.08268e-16
6.51367e-17
-9.89341e-17
-1.52931e-16
-5.61894e-17
3.52215e-17
3.9701e-17
4.24237e-17
3.01369e-17
1.54115e-13
-3.34458e-14
7.64154e-15
-1.86563e-15
2.49523e-16
-1.47335e-16
1.29774e-17
4.73637e-17
7.7231e-17
9.40579e-17
1.22055e-16
2.03425e-16
2.09621e-16
9.00046e-17
5.73971e-17
1.22376e-16
1.54976e-16
7.9767e-17
6.64269e-17
3.80859e-17
-1.12411e-13
2.47572e-14
-5.75362e-15
1.24383e-15
-3.85708e-16
4.35021e-17
6.31654e-17
5.18022e-17
8.35971e-17
1.29818e-16
1.20158e-16
4.37823e-17
3.27166e-17
1.75397e-17
1.11639e-16
5.95811e-17
-7.5962e-17
-7.56168e-17
5.27706e-17
4.43387e-17
-1.91759e-14
4.29815e-15
-8.83778e-16
2.58213e-16
-1.62857e-16
-9.02745e-17
-1.34848e-17
7.22339e-17
8.22489e-17
7.24974e-17
8.12195e-17
1.20362e-16
1.79766e-16
1.25277e-16
6.14355e-17
-8.77845e-17
-1.83919e-16
-2.63041e-17
4.42202e-17
3.25584e-17
1.25535e-13
-2.71908e-14
6.44742e-15
-1.31078e-15
3.88283e-16
-4.77537e-17
9.37322e-17
1.87692e-16
2.68569e-17
-1.21438e-16
-7.49447e-17
-1.57542e-17
-5.35733e-17
-2.34653e-17
6.48112e-17
2.19727e-17
-2.39453e-18
4.80868e-17
-3.14213e-17
-2.64396e-17
-6.06875e-14
1.24738e-14
-3.07826e-15
7.07982e-16
4.16075e-17
7.21175e-17
-5.92486e-17
-5.06357e-17
-7.96689e-17
-9.28894e-17
-9.13998e-17
-1.75169e-16
-2.95559e-16
-2.08633e-16
-1.14396e-16
-1.50146e-17
8.47241e-17
2.59206e-17
-5.64905e-17
-1.87469e-17
-7.56945e-14
1.59003e-14
-3.84451e-15
8.41848e-16
-1.05443e-16
-1.77874e-17
-1.59013e-16
-1.31078e-16
-1.71845e-17
2.93023e-17
2.34253e-17
3.64352e-18
-8.97155e-18
-2.95732e-17
-1.51822e-16
-1.12749e-16
6.24232e-18
2.7582e-17
1.52687e-17
1.9717e-17
)
;

boundaryField
{
    movingWall
    {
        type            calculated;
        value           uniform -0;
    }
    fixedWalls
    {
        type            calculated;
        value           uniform -0;
    }
    frontAndBack
    {
        type            empty;
    }
}


// ************************************************************************* //
