/*--------------------------------*- C++ -*----------------------------------*\
| =========                 |                                                 |
| \\      /  F ield         | OpenFOAM: The Open Source CFD Toolbox           |
|  \\    /   O peration     | Version:  2506                                  |
|   \\  /    A nd           | Website:  www.openfoam.com                      |
|    \\/     M anipulation  |                                                 |
\*---------------------------------------------------------------------------*/
FoamFile
{
    version     2.0;
    format      ascii;
    arch        "LSB;label=32;scalar=64";
    class       volVectorField;
    location    "3.5";
    object      ddtU;
}
// * * * * * * * * * * * * * * * * * * * * * * * * * * * * * * * * * * * * * //

dimensions      [0 1 -2 0 0 0 0];

internalField   nonuniform List<vector> 
400
(
(-2.76438e-08 -3.30036e-07 0)
(4.46758e-09 7.20102e-08 0)
(-2.71161e-09 -1.67175e-08 0)
(-2.37943e-10 3.62829e-09 0)
(-6.61915e-10 -8.51071e-10 0)
(-4.28413e-10 1.38606e-10 0)
(-3.78786e-10 -7.60719e-11 0)
(-2.98606e-10 -2.302e-11 0)
(-2.41918e-10 -2.75058e-11 0)
(-1.92713e-10 -2.10878e-11 0)
(-1.52278e-10 -1.82291e-11 0)
(-1.18194e-10 -1.54093e-11 0)
(-8.93063e-11 -1.32762e-11 0)
(-6.42597e-11 -1.18507e-11 0)
(-4.22773e-11 -9.97058e-12 0)
(-2.40252e-11 -7.45188e-12 0)
(-1.20792e-11 -4.44267e-12 0)
(-5.63993e-12 -3.43899e-12 0)
(2.17604e-12 -3.87571e-12 0)
(7.01661e-12 2.4513e-12 0)
(8.55965e-08 3.54341e-07 0)
(-1.68912e-08 -7.69451e-08 0)
(6.13123e-09 1.77421e-08 0)
(-2.0516e-09 -4.01273e-09 0)
(-1.15197e-10 7.0137e-10 0)
(-5.75628e-10 -3.30293e-10 0)
(-3.29647e-10 -7.47367e-11 0)
(-2.9734e-10 -1.0217e-10 0)
(-2.28573e-10 -7.4243e-11 0)
(-1.85407e-10 -6.36552e-11 0)
(-1.46327e-10 -5.36054e-11 0)
(-1.14087e-10 -4.57146e-11 0)
(-8.65752e-11 -3.95812e-11 0)
(-6.23057e-11 -3.51742e-11 0)
(-4.09894e-11 -2.99257e-11 0)
(-2.37144e-11 -2.26057e-11 0)
(-1.21236e-11 -1.29096e-11 0)
(-4.70735e-12 -9.59056e-12 0)
(2.70894e-12 -1.25188e-11 0)
(6.70575e-12 7.64438e-12 0)
(-1.53995e-07 -4.05922e-07 0)
(2.90076e-08 9.0213e-08 0)
(-1.31866e-08 -2.07958e-08 0)
(1.83542e-09 4.3927e-09 0)
(-1.32865e-09 -1.28378e-09 0)
(-2.04681e-10 -6.53534e-12 0)
(-3.71547e-10 -2.38679e-10 0)
(-2.39408e-10 -1.41329e-10 0)
(-2.08322e-10 -1.24276e-10 0)
(-1.63314e-10 -1.00742e-10 0)
(-1.31317e-10 -8.59882e-11 0)
(-1.02629e-10 -7.33984e-11 0)
(-7.82485e-11 -6.38781e-11 0)
(-5.67102e-11 -5.69507e-11 0)
(-3.75699e-11 -4.84471e-11 0)
(-2.11831e-11 -3.66529e-11 0)
(-1.06137e-11 -2.12441e-11 0)
(-5.15143e-12 -1.58651e-11 0)
(2.08722e-12 -2.017e-11 0)
(6.43929e-12 1.24772e-11 0)
(2.26167e-07 5.10124e-07 0)
(-4.38768e-08 -1.10557e-07 0)
(1.56513e-08 2.47762e-08 0)
(-4.48372e-09 -6.29797e-09 0)
(5.42899e-10 7.40222e-10 0)
(-6.80789e-10 -6.4415e-10 0)
(-1.83364e-10 -2.01437e-10 0)
(-2.28062e-10 -2.1287e-10 0)
(-1.58495e-10 -1.55625e-10 0)
(-1.36513e-10 -1.32201e-10 0)
(-1.08691e-10 -1.12317e-10 0)
(-8.67528e-11 -9.67694e-11 0)
(-6.6791e-11 -8.47279e-11 0)
(-4.85834e-11 -7.59338e-11 0)
(-3.21076e-11 -6.49353e-11 0)
(-1.86962e-11 -4.93239e-11 0)
(-9.68114e-12 -2.84626e-11 0)
(-3.06422e-12 -2.11287e-11 0)
(2.93099e-12 -2.74213e-11 0)
(5.63993e-12 1.70796e-11 0)
(-3.62717e-07 -7.33571e-07 0)
(6.6836e-08 1.47432e-07 0)
(-2.8713e-08 -3.74441e-08 0)
(5.0822e-09 6.1719e-09 0)
(-1.85409e-09 -2.28651e-09 0)
(2.79821e-10 -4.97165e-11 0)
(-2.43539e-10 -3.69607e-10 0)
(-9.88098e-11 -2.06992e-10 0)
(-1.23701e-10 -1.84246e-10 0)
(-9.74998e-11 -1.51332e-10 0)
(-8.38885e-11 -1.31824e-10 0)
(-6.74572e-11 -1.14483e-10 0)
(-5.2891e-11 -1.01218e-10 0)
(-3.89466e-11 -9.14492e-11 0)
(-2.60014e-11 -7.85054e-11 0)
(-1.46105e-11 -5.97336e-11 0)
(-7.19425e-12 -3.45874e-11 0)
(-3.33067e-12 -2.59453e-11 0)
(2.04281e-12 -3.34921e-11 0)
(5.10703e-12 2.11594e-11 0)
(4.87544e-07 8.89619e-07 0)
(-8.94754e-08 -2.01425e-07 0)
(4.13925e-08 4.66617e-08 0)
(-6.68903e-09 -1.10742e-08 0)
(2.72018e-09 1.86927e-09 0)
(-6.42997e-10 -8.75037e-10 0)
(1.1533e-10 -1.75298e-10 0)
(-1.16174e-10 -2.4726e-10 0)
(-5.47562e-11 -1.82651e-10 0)
(-6.65912e-11 -1.62634e-10 0)
(-5.50671e-11 -1.42823e-10 0)
(-4.74731e-11 -1.26293e-10 0)
(-3.79918e-11 -1.12952e-10 0)
(-2.83773e-11 -1.03027e-10 0)
(-1.89182e-11 -8.90252e-11 0)
(-1.12799e-11 -6.80323e-11 0)
(-5.90639e-12 -3.92867e-11 0)
(-7.54952e-13 -2.95141e-11 0)
(3.06422e-12 -3.86434e-11 0)
(3.9968e-12 2.47516e-11 0)
(-5.39628e-07 -9.91747e-07 0)
(1.07371e-07 2.32533e-07 0)
(-4.73925e-08 -5.50613e-08 0)
(9.73075e-09 1.2343e-08 0)
(-3.26632e-09 -3.26161e-09 0)
(9.63762e-10 3.94011e-10 0)
(-2.1112e-10 -3.91955e-10 0)
(6.41709e-11 -1.71266e-10 0)
(-4.17e-11 -1.88057e-10 0)
(-2.46025e-11 -1.60286e-10 0)
(-3.13971e-11 -1.47314e-10 0)
(-2.6934e-11 -1.32111e-10 0)
(-2.31148e-11 -1.19885e-10 0)
(-1.78524e-11 -1.10559e-10 0)
(-1.23235e-11 -9.62082e-11 0)
(-6.86118e-12 -7.3748e-11 0)
(-3.06422e-12 -4.25988e-11 0)
(-1.06581e-12 -3.23304e-11 0)
(1.9984e-12 -4.24875e-11 0)
(3.24185e-12 2.76485e-11 0)
(5.46916e-07 1.08566e-06 0)
(-1.06664e-07 -2.57129e-07 0)
(4.84628e-08 6.05914e-08 0)
(-8.98182e-09 -1.45012e-08 0)
(3.63696e-09 3.15399e-09 0)
(-7.9452e-10 -1.00416e-09 0)
(3.00204e-10 -1.07954e-11 0)
(-5.17586e-11 -2.23758e-10 0)
(2.86438e-11 -1.56461e-10 0)
(-7.34968e-12 -1.57625e-10 0)
(-5.35127e-12 -1.44621e-10 0)
(-9.57012e-12 -1.33189e-10 0)
(-9.10383e-12 -1.22442e-10 0)
(-7.66054e-12 -1.14277e-10 0)
(-5.15143e-12 -1.00205e-10 0)
(-3.68594e-12 -7.71691e-11 0)
(-2.04281e-12 -4.45096e-11 0)
(1.5099e-12 -3.39393e-11 0)
(3.01981e-12 -4.51512e-11 0)
(1.95399e-12 2.98559e-11 0)
(-5.47087e-07 -1.15907e-06 0)
(1.10841e-07 2.77109e-07 0)
(-4.88647e-08 -6.57192e-08 0)
(1.01333e-08 1.55367e-08 0)
(-3.44915e-09 -3.87035e-09 0)
(1.07176e-09 7.22059e-10 0)
(-1.72662e-10 -3.67886e-10 0)
(1.3558e-10 -1.04921e-10 0)
(1.38112e-11 -1.61026e-10 0)
(2.70894e-11 -1.42115e-10 0)
(1.06137e-11 -1.39774e-10 0)
(7.14984e-12 -1.29869e-10 0)
(3.13083e-12 -1.21433e-10 0)
(1.42109e-12 -1.14603e-10 0)
(4.44089e-13 -1.01224e-10 0)
(2.88658e-13 -7.82255e-11 0)
(6.21725e-13 -4.50172e-11 0)
(9.76996e-13 -3.46692e-11 0)
(1.68754e-12 -4.65862e-11 0)
(1.15463e-12 3.12397e-11 0)
(5.14987e-07 1.23149e-06 0)
(-1.01741e-07 -2.94883e-07 0)
(4.58126e-08 6.98659e-08 0)
(-8.74203e-09 -1.67976e-08 0)
(3.50906e-09 3.88423e-09 0)
(-7.6017e-10 -1.06788e-09 0)
(3.35199e-10 1.01068e-10 0)
(-9.05942e-12 -1.84547e-10 0)
(7.19869e-11 -1.19089e-10 0)
(3.25295e-11 -1.35606e-10 0)
(2.96208e-11 -1.29755e-10 0)
(1.94955e-11 -1.24187e-10 0)
(1.39e-11 -1.17301e-10 0)
(9.4369e-12 -1.1201e-10 0)
(6.35048e-12 -9.96168e-11 0)
(2.77556e-12 -7.72675e-11 0)
(1.06581e-12 -4.43192e-11 0)
(3.24185e-12 -3.43999e-11 0)
(2.39808e-12 -4.68446e-11 0)
(-2.44249e-13 3.17028e-11 0)
(-4.93669e-07 -1.29256e-06 0)
(1.00273e-07 3.10844e-07 0)
(-4.42953e-08 -7.37137e-08 0)
(9.16973e-09 1.767e-08 0)
(-3.16758e-09 -4.29823e-09 0)
(9.9285e-10 9.18021e-10 0)
(-1.35136e-10 -3.45234e-10 0)
(1.56986e-10 -5.24232e-11 0)
(4.62075e-11 -1.2961e-10 0)
(5.75096e-11 -1.16224e-10 0)
(3.8658e-11 -1.21079e-10 0)
(3.11973e-11 -1.15745e-10 0)
(2.26708e-11 -1.11005e-10 0)
(1.60982e-11 -1.06963e-10 0)
(1.04361e-11 -9.57761e-11 0)
(5.79536e-12 -7.44821e-11 0)
(3.28626e-12 -4.24471e-11 0)
(2.33147e-12 -3.32427e-11 0)
(8.65974e-13 -4.61727e-11 0)
(-1.04361e-12 3.12754e-11 0)
(4.458e-07 1.35242e-06 0)
(-8.86238e-08 -3.25201e-07 0)
(3.9715e-08 7.7108e-08 0)
(-7.70437e-09 -1.85788e-08 0)
(3.06044e-09 4.37785e-09 0)
(-6.60672e-10 -1.13033e-09 0)
(3.16192e-10 1.72397e-10 0)
(1.86517e-11 -1.54418e-10 0)
(9.21929e-11 -8.61707e-11 0)
(5.66436e-11 -1.1026e-10 0)
(5.16476e-11 -1.08293e-10 0)
(3.91465e-11 -1.06621e-10 0)
(3.01315e-11 -1.02716e-10 0)
(2.18048e-11 -9.99932e-11 0)
(1.48326e-11 -8.99628e-11 0)
(7.39409e-12 -7.01022e-11 0)
(3.24185e-12 -3.96215e-11 0)
(4.06342e-12 -3.13214e-11 0)
(1.5099e-12 -4.4426e-11 0)
(-2.26485e-12 2.98693e-11 0)
(-4.12489e-07 -1.40195e-06 0)
(8.39385e-08 3.37719e-07 0)
(-3.70904e-08 -8.01323e-08 0)
(7.67555e-09 1.92684e-08 0)
(-2.66209e-09 -4.65878e-09 0)
(8.46434e-10 1.04469e-09 0)
(-9.36362e-11 -3.37141e-10 0)
(1.57119e-10 -1.60759e-11 0)
(6.5592e-11 -1.03168e-10 0)
(7.4607e-11 -9.05497e-11 0)
(5.6577e-11 -9.84439e-11 0)
(4.69624e-11 -9.56106e-11 0)
(3.60156e-11 -9.32504e-11 0)
(2.65343e-11 -9.13202e-11 0)
(1.75415e-11 -8.25834e-11 0)
(9.61453e-12 -6.44009e-11 0)
(5.04041e-12 -3.58651e-11 0)
(3.4639e-12 -2.86269e-11 0)
(2.44249e-13 -4.20313e-11 0)
(-2.95319e-12 2.7737e-11 0)
(3.56727e-07 1.44955e-06 0)
(-7.11379e-08 -3.49184e-07 0)
(3.18254e-08 8.27936e-08 0)
(-6.20612e-09 -1.99911e-08 0)
(2.47162e-09 4.73292e-09 0)
(-5.14477e-10 -1.19399e-09 0)
(2.79021e-10 2.16567e-10 0)
(4.1811e-11 -1.34613e-10 0)
(1.01608e-10 -5.99101e-11 0)
(7.16982e-11 -8.59918e-11 0)
(6.52811e-11 -8.47068e-11 0)
(5.19362e-11 -8.46695e-11 0)
(4.10338e-11 -8.25325e-11 0)
(3.04423e-11 -8.13822e-11 0)
(2.07168e-11 -7.37915e-11 0)
(1.06803e-11 -5.74856e-11 0)
(4.86278e-12 -3.16144e-11 0)
(5.01821e-12 -2.55491e-11 0)
(9.10383e-13 -3.85252e-11 0)
(-4.04121e-12 2.48141e-11 0)
(-3.14463e-07 -1.48712e-06 0)
(6.39614e-08 3.58379e-07 0)
(-2.82713e-08 -8.50767e-08 0)
(5.86118e-09 2.04627e-08 0)
(-2.01128e-09 -4.94616e-09 0)
(6.72307e-10 1.12757e-09 0)
(-4.24327e-11 -3.37223e-10 0)
(1.50102e-10 9.05305e-12 0)
(7.98694e-11 -8.13926e-11 0)
(8.48654e-11 -6.62437e-11 0)
(6.80345e-11 -7.4337e-11 0)
(5.71987e-11 -7.2258e-11 0)
(4.4853e-11 -7.11603e-11 0)
(3.36176e-11 -7.0299e-11 0)
(2.24931e-11 -6.39546e-11 0)
(1.22347e-11 -4.97777e-11 0)
(6.32827e-12 -2.6745e-11 0)
(4.90719e-12 -2.18297e-11 0)
(1.9984e-13 -3.45001e-11 0)
(-4.57412e-12 2.14704e-11 0)
(2.56814e-07 1.52225e-06 0)
(-5.12498e-08 -3.66797e-07 0)
(2.2956e-08 8.69313e-08 0)
(-4.45268e-09 -2.10128e-08 0)
(1.81699e-09 4.97099e-09 0)
(-3.35687e-10 -1.24464e-09 0)
(2.37899e-10 2.44151e-10 0)
(6.62359e-11 -1.19709e-10 0)
(1.07159e-10 -3.7374e-11 0)
(8.26228e-11 -6.25493e-11 0)
(7.42073e-11 -5.97838e-11 0)
(6.04405e-11 -6.03554e-11 0)
(4.81837e-11 -5.8803e-11 0)
(3.61489e-11 -5.856e-11 0)
(2.47358e-11 -5.31649e-11 0)
(1.3034e-11 -4.13102e-11 0)
(6.19504e-12 -2.18302e-11 0)
(6.01741e-12 -1.82374e-11 0)
(9.10383e-13 -2.94566e-11 0)
(-5.30687e-12 1.7651e-11 0)
(-2.12454e-07 -1.54788e-06 0)
(4.33261e-08 3.72977e-07 0)
(-1.90689e-08 -8.85844e-08 0)
(4.01479e-09 2.12863e-08 0)
(-1.31661e-09 -5.15291e-09 0)
(5.02842e-10 1.18251e-09 0)
(1.55875e-11 -3.36548e-10 0)
(1.43663e-10 2.95793e-11 0)
(9.27924e-11 -6.08491e-11 0)
(9.21485e-11 -4.22148e-11 0)
(7.60725e-11 -4.91335e-11 0)
(6.39044e-11 -4.70425e-11 0)
(5.0715e-11 -4.64456e-11 0)
(3.82361e-11 -4.613e-11 0)
(2.58238e-11 -4.20584e-11 0)
(1.39222e-11 -3.26143e-11 0)
(7.30527e-12 -1.67855e-11 0)
(5.88418e-12 -1.43932e-11 0)
(3.10862e-13 -2.44026e-11 0)
(-5.61773e-12 1.35745e-11 0)
(1.48813e-07 1.57086e-06 0)
(-2.93705e-08 -3.78527e-07 0)
(1.33505e-08 8.96616e-08 0)
(-2.4778e-09 -2.17044e-08 0)
(1.11786e-09 5.12825e-09 0)
(-1.26921e-10 -1.27886e-09 0)
(1.96509e-10 2.64974e-10 0)
(9.34586e-11 -1.05452e-10 0)
(1.11156e-10 -1.68477e-11 0)
(9.12603e-11 -3.95476e-11 0)
(8.00249e-11 -3.53277e-11 0)
(6.59472e-11 -3.55243e-11 0)
(5.27578e-11 -3.44505e-11 0)
(3.98792e-11 -3.42213e-11 0)
(2.72893e-11 -3.1065e-11 0)
(1.44773e-11 -2.40885e-11 0)
(6.95e-12 -1.24386e-11 0)
(5.86198e-12 -1.08926e-11 0)
(6.66134e-14 -1.84821e-11 0)
(-6.17284e-12 8.9578e-12 0)
(-1.10414e-07 -1.5841e-06 0)
(2.27605e-08 3.81086e-07 0)
(-9.71532e-09 -9.04997e-08 0)
(2.17057e-09 2.16929e-08 0)
(-5.76339e-10 -5.23613e-09 0)
(3.34976e-10 1.21565e-09 0)
(8.1557e-11 -3.19061e-10 0)
(1.37268e-10 5.39616e-11 0)
(1.04849e-10 -3.44201e-11 0)
(9.71223e-11 -1.39693e-11 0)
(8.14904e-11 -1.97433e-11 0)
(6.80345e-11 -1.80844e-11 0)
(5.43565e-11 -1.80081e-11 0)
(4.13003e-11 -1.81197e-11 0)
(2.81108e-11 -1.6525e-11 0)
(1.48326e-11 -1.26389e-11 0)
(8.23785e-12 -4.52233e-12 0)
(8.28226e-12 -3.46485e-12 0)
(1.26565e-12 -1.10714e-11 0)
(-6.39488e-12 4.16146e-12 0)
(5.24847e-08 1.59704e-06 0)
(-1.15135e-08 -3.87604e-07 0)
(5.40687e-09 9.18846e-08 0)
(-9.59632e-10 -2.23519e-08 0)
(6.06626e-10 5.34279e-09 0)
(3.9857e-11 -1.29634e-09 0)
(1.74483e-10 3.10397e-10 0)
(1.14264e-10 -7.80051e-11 0)
(1.13598e-10 1.61669e-11 0)
(9.56568e-11 -7.40916e-12 0)
(8.22897e-11 -2.21098e-12 0)
(6.7768e-11 -3.68036e-12 0)
(5.45786e-11 -3.38851e-12 0)
(4.15668e-11 -3.86425e-12 0)
(2.82885e-11 -3.54077e-12 0)
(1.53211e-11 -2.36209e-12 0)
(1.00364e-11 7.35605e-13 0)
(1.19904e-11 7.82484e-13 0)
(4.24105e-12 -3.29533e-12 0)
(-6.39488e-12 8.78236e-13 0)
)
;

boundaryField
{
    movingWall
    {
        type            calculated;
        value           uniform (0 0 0);
    }
    fixedWalls
    {
        type            calculated;
        value           uniform (0 0 0);
    }
    frontAndBack
    {
        type            empty;
    }
}


// ************************************************************************* //
