/*--------------------------------*- C++ -*----------------------------------*\
| =========                 |                                                 |
| \\      /  F ield         | OpenFOAM: The Open Source CFD Toolbox           |
|  \\    /   O peration     | Version:  2506                                  |
|   \\  /    A nd           | Website:  www.openfoam.com                      |
|    \\/     M anipulation  |                                                 |
\*---------------------------------------------------------------------------*/
FoamFile
{
    version     2.0;
    format      ascii;
    arch        "LSB;label=32;scalar=64";
    class       volScalarField;
    location    "3.5";
    object      divPhi;
}
// * * * * * * * * * * * * * * * * * * * * * * * * * * * * * * * * * * * * * //

dimensions      [0 0 -1 0 0 0 0];

internalField   nonuniform List<scalar> 
400
(
4.16334e-11
1.18037e-12
1.52293e-12
1.35837e-12
1.13048e-12
9.19012e-13
7.64188e-13
6.38808e-13
5.3431e-13
5.11544e-13
4.59698e-13
4.01003e-13
4.01818e-13
3.59215e-13
3.45957e-13
3.1442e-13
2.76465e-13
2.6344e-13
4.38267e-13
1.0842e-13
1.81604e-12
9.63584e-13
1.18971e-12
1.1341e-12
9.92302e-13
8.23311e-13
7.04298e-13
6.13786e-13
5.48754e-13
4.71455e-13
4.45129e-13
4.13819e-13
3.7605e-13
3.96614e-13
3.5538e-13
2.84987e-13
3.13589e-13
3.16626e-13
2.33775e-13
2.43945e-13
-1.6263e-12
2.18199e-13
6.32474e-13
7.23571e-13
6.85102e-13
6.69657e-13
6.03246e-13
5.24805e-13
4.73776e-13
4.33635e-13
4.27847e-13
3.79801e-13
3.39747e-13
3.17757e-13
3.33764e-13
2.90423e-13
2.19286e-13
2.11799e-13
4.64662e-13
8.13152e-14
5.96311e-13
1.3173e-13
3.47766e-13
4.49857e-13
5.00268e-13
4.7744e-13
4.45502e-13
4.47986e-13
4.0908e-13
3.3201e-13
3.34456e-13
3.35517e-13
2.5717e-13
2.84479e-13
3.1239e-13
2.27373e-13
2.59343e-13
3.05675e-13
9.63504e-14
2.1684e-13
-1.68051e-12
-1.87615e-13
5.01575e-14
1.88232e-13
2.80223e-13
2.99006e-13
3.15476e-13
2.87883e-13
3.11883e-13
2.8218e-13
2.56461e-13
2.71225e-13
2.64616e-13
2.77031e-13
2.22058e-13
2.01242e-13
1.88793e-13
9.73859e-14
4.05712e-13
5.42101e-14
4.87891e-13
-9.1464e-14
-3.33385e-14
5.99462e-14
1.37511e-13
1.64316e-13
1.60807e-13
1.6674e-13
1.8325e-13
1.76351e-13
2.03417e-13
1.54761e-13
1.69323e-13
1.74266e-13
1.95457e-13
1.4253e-13
1.45657e-13
2.06313e-13
-3.12461e-14
1.89735e-13
-1.49078e-12
-2.89453e-13
-1.34509e-13
-7.71582e-14
2.80041e-15
3.21159e-14
6.49374e-14
6.38421e-14
9.57178e-14
7.22187e-14
8.46064e-14
1.01422e-13
1.23966e-13
1.29191e-13
1.15896e-13
1.09889e-13
8.2801e-14
-4.46349e-14
3.48268e-13
-8.13152e-14
4.06576e-13
-1.92062e-13
-1.9148e-13
-1.3207e-13
-1.25481e-13
-9.01553e-14
-4.40754e-14
3.66053e-16
-1.75662e-14
-2.8586e-15
4.5788e-15
8.60131e-15
1.86009e-14
2.16547e-14
4.81886e-14
1.19903e-14
4.64697e-14
1.86829e-13
-1.83684e-13
1.35525e-13
-1.32815e-12
-3.4584e-13
-2.68198e-13
-2.61696e-13
-1.80466e-13
-1.9014e-13
-1.32658e-13
-1.21771e-13
-8.07415e-14
-8.74338e-14
-7.19796e-14
-3.50123e-14
-6.41552e-14
-6.33465e-14
-2.60699e-14
-1.93981e-14
-3.08951e-14
-1.58713e-13
2.4431e-13
-1.35525e-13
5.42101e-14
-2.83587e-13
-3.1209e-13
-3.08065e-13
-2.64579e-13
-2.46119e-13
-2.35188e-13
-2.18816e-13
-1.89037e-13
-1.64134e-13
-1.27012e-13
-1.31736e-13
-1.36306e-13
-1.24653e-13
-7.59623e-14
-1.13498e-13
-6.96165e-14
3.5485e-14
-2.84626e-13
5.42101e-14
-1.30104e-12
-4.50346e-13
-3.88418e-13
-3.79243e-13
-3.58583e-13
-3.54656e-13
-3.08188e-13
-2.85487e-13
-2.62188e-13
-2.26817e-13
-1.76212e-13
-1.9052e-13
-1.70587e-13
-1.97455e-13
-1.59263e-13
-1.45357e-13
-1.52585e-13
-2.66085e-13
7.72671e-14
-1.89735e-13
-2.71051e-13
-3.8788e-13
-4.50948e-13
-4.29811e-13
-4.16297e-13
-4.08608e-13
-3.56564e-13
-3.48074e-13
-3.1964e-13
-3.10529e-13
-2.77363e-13
-2.43749e-13
-2.66074e-13
-2.55947e-13
-2.45008e-13
-2.36391e-13
-1.92497e-13
-9.21078e-14
-3.8535e-13
-5.42101e-14
-1.27394e-12
-5.59659e-13
-4.76827e-13
-5.07716e-13
-4.66091e-13
-4.53289e-13
-4.31811e-13
-4.2105e-13
-3.63265e-13
-3.75396e-13
-3.72019e-13
-3.20718e-13
-3.02767e-13
-3.22736e-13
-2.50262e-13
-2.50448e-13
-2.61843e-13
-3.59387e-13
-9.35982e-14
-1.89735e-13
-6.23416e-13
-5.21634e-13
-5.06439e-13
-5.30094e-13
-5.29911e-13
-4.70435e-13
-4.80068e-13
-4.2103e-13
-4.57827e-13
-4.02706e-13
-3.66317e-13
-3.77805e-13
-3.43325e-13
-3.50815e-13
-3.32563e-13
-3.31678e-13
-2.55481e-13
-2.15006e-13
-4.49041e-13
-1.35525e-13
-1.19262e-12
-5.94833e-13
-5.51262e-13
-5.55119e-13
-5.23246e-13
-5.06793e-13
-5.06873e-13
-4.52804e-13
-4.57271e-13
-4.15999e-13
-4.07673e-13
-4.04633e-13
-3.71594e-13
-3.74266e-13
-4.02335e-13
-3.34203e-13
-3.3857e-13
-3.6798e-13
-1.89632e-13
-2.1684e-13
-8.13152e-13
-5.6519e-13
-5.68679e-13
-5.74246e-13
-5.46619e-13
-4.94448e-13
-5.03619e-13
-4.96387e-13
-4.54212e-13
-4.63421e-13
-4.39566e-13
-4.10792e-13
-3.97013e-13
-3.89363e-13
-3.94167e-13
-3.65603e-13
-3.29393e-13
-2.44395e-13
-4.3342e-13
-1.35525e-13
-1.02999e-12
-5.68481e-13
-5.54059e-13
-5.6277e-13
-5.45011e-13
-5.28264e-13
-4.85425e-13
-5.28841e-13
-4.61194e-13
-4.40164e-13
-4.29658e-13
-4.35674e-13
-4.05033e-13
-4.30713e-13
-3.96088e-13
-3.67821e-13
-3.31447e-13
-3.71579e-13
-3.15805e-13
-2.43945e-13
-9.21572e-13
-5.20049e-13
-5.501e-13
-5.18264e-13
-5.33879e-13
-5.21454e-13
-4.9641e-13
-4.63217e-13
-4.7768e-13
-4.58079e-13
-4.45436e-13
-4.35932e-13
-4.09532e-13
-4.04795e-13
-3.90341e-13
-3.33957e-13
-3.46988e-13
-2.87062e-13
-3.89268e-13
-1.89735e-13
-8.67362e-13
-5.168e-13
-5.048e-13
-4.89165e-13
-4.57503e-13
-4.86683e-13
-4.78943e-13
-4.31516e-13
-4.49011e-13
-4.1867e-13
-4.35192e-13
-4.05147e-13
-3.99924e-13
-3.74016e-13
-3.92879e-13
-3.43652e-13
-3.10129e-13
-3.45922e-13
-3.90201e-13
-1.89735e-13
-3.79471e-13
-2.43945e-13
-2.43945e-13
-2.43945e-13
-2.43945e-13
-2.1684e-13
-2.1684e-13
-2.1684e-13
-1.89735e-13
-2.1684e-13
-1.89735e-13
-1.89735e-13
-1.89735e-13
-1.89735e-13
-1.89735e-13
-1.6263e-13
-1.6263e-13
-1.6263e-13
-2.1684e-13
0
)
;

boundaryField
{
    movingWall
    {
        type            extrapolatedCalculated;
        value           nonuniform List<scalar> 
20
(
-3.79471e-13
-2.43945e-13
-2.43945e-13
-2.43945e-13
-2.43945e-13
-2.1684e-13
-2.1684e-13
-2.1684e-13
-1.89735e-13
-2.1684e-13
-1.89735e-13
-1.89735e-13
-1.89735e-13
-1.89735e-13
-1.89735e-13
-1.6263e-13
-1.6263e-13
-1.6263e-13
-2.1684e-13
0
)
;
    }
    fixedWalls
    {
        type            extrapolatedCalculated;
        value           nonuniform List<scalar> 
60
(
4.16334e-11
1.81604e-12
-1.6263e-12
5.96311e-13
-1.68051e-12
4.87891e-13
-1.49078e-12
4.06576e-13
-1.32815e-12
5.42101e-14
-1.30104e-12
-2.71051e-13
-1.27394e-12
-6.23416e-13
-1.19262e-12
-8.13152e-13
-1.02999e-12
-9.21572e-13
-8.67362e-13
-3.79471e-13
1.0842e-13
2.43945e-13
8.13152e-14
2.1684e-13
5.42101e-14
1.89735e-13
-8.13152e-14
1.35525e-13
-1.35525e-13
5.42101e-14
-1.89735e-13
-5.42101e-14
-1.89735e-13
-1.35525e-13
-2.1684e-13
-1.35525e-13
-2.43945e-13
-1.89735e-13
-1.89735e-13
0
4.16334e-11
1.18037e-12
1.52293e-12
1.35837e-12
1.13048e-12
9.19012e-13
7.64188e-13
6.38808e-13
5.3431e-13
5.11544e-13
4.59698e-13
4.01003e-13
4.01818e-13
3.59215e-13
3.45957e-13
3.1442e-13
2.76465e-13
2.6344e-13
4.38267e-13
1.0842e-13
)
;
    }
    frontAndBack
    {
        type            empty;
    }
}


// ************************************************************************* //
