/*--------------------------------*- C++ -*----------------------------------*\
| =========                 |                                                 |
| \\      /  F ield         | OpenFOAM: The Open Source CFD Toolbox           |
|  \\    /   O peration     | Version:  2506                                  |
|   \\  /    A nd           | Website:  www.openfoam.com                      |
|    \\/     M anipulation  |                                                 |
\*---------------------------------------------------------------------------*/
FoamFile
{
    version     2.0;
    format      ascii;
    arch        "LSB;label=32;scalar=64";
    class       volScalarField;
    location    "3.5";
    object      divU;
}
// * * * * * * * * * * * * * * * * * * * * * * * * * * * * * * * * * * * * * //

dimensions      [0 0 -1 0 0 0 0];

internalField   nonuniform List<scalar> 
400
(
1.50909e-07
-6.28959e-07
1.01141e-07
-5.21527e-08
7.47683e-09
-3.2183e-09
7.60239e-10
-1.80823e-10
5.95671e-11
-1.17e-11
5.65027e-12
4.91923e-13
1.81207e-12
1.36097e-12
1.36923e-12
8.70131e-13
-3.1962e-13
-4.78454e-13
2.22637e-12
7.31836e-13
-6.07861e-07
2.08547e-06
-3.79633e-07
1.9072e-07
-3.36689e-08
1.33795e-08
-3.48958e-09
9.12464e-10
-2.88414e-10
7.70816e-11
-1.95531e-11
7.37302e-12
-5.21178e-13
1.71316e-12
1.22817e-12
1.26962e-13
-8.34935e-13
7.6922e-13
2.27187e-12
4.06576e-13
1.11071e-06
-3.48928e-06
6.3094e-07
-3.18482e-07
5.5379e-08
-2.2177e-08
5.75591e-09
-1.47398e-09
4.88125e-10
-1.16788e-10
3.63896e-11
-8.78497e-12
3.63935e-12
1.71324e-13
1.38784e-12
9.01857e-13
-6.83528e-13
-8.59146e-13
1.8549e-12
8.13152e-13
-2.0427e-06
4.91269e-06
-9.00739e-07
4.50055e-07
-7.69355e-08
3.16807e-08
-7.9454e-09
2.11989e-09
-6.85254e-10
1.69233e-10
-4.94009e-11
1.4465e-11
-3.14131e-12
1.94884e-12
9.61075e-13
-6.26311e-14
-1.13627e-12
9.16028e-13
2.35371e-12
1.35525e-13
3.44046e-06
-6.25518e-06
1.18102e-06
-5.75382e-07
9.97627e-08
-4.12873e-08
1.01468e-08
-2.7972e-09
8.81557e-10
-2.20221e-10
6.45935e-11
-1.82545e-11
5.18289e-12
-8.82854e-13
1.12853e-12
4.78206e-13
-7.92151e-13
-9.81142e-13
1.62975e-12
6.50521e-13
-4.51074e-06
7.18517e-06
-1.38208e-06
6.62329e-07
-1.18155e-07
4.82184e-08
-1.19962e-08
3.3086e-09
-1.05796e-09
2.59565e-10
-7.92511e-11
2.11785e-11
-6.03259e-12
2.17943e-12
4.7797e-13
-5.11567e-13
-1.53593e-12
1.00161e-12
2.2527e-12
-2.71051e-13
4.98374e-06
-7.6566e-06
1.48633e-06
-7.08026e-07
1.28982e-07
-5.24226e-08
1.31722e-08
-3.68593e-09
1.17172e-09
-2.96042e-10
8.75508e-11
-2.54277e-11
6.54112e-12
-1.82754e-12
8.93282e-13
1.1484e-13
-1.02549e-12
-1.03777e-12
1.42202e-12
4.06576e-13
-5.07996e-06
7.73018e-06
-1.5022e-06
7.15306e-07
-1.30848e-07
5.30462e-08
-1.33917e-08
3.73522e-09
-1.19829e-09
2.9901e-10
-9.15108e-11
2.45792e-11
-7.46704e-12
2.29878e-12
2.07381e-13
-9.20522e-13
-1.90573e-12
1.13056e-12
2.05444e-12
-5.42101e-13
5.03557e-06
-7.64411e-06
1.4902e-06
-7.08634e-07
1.30581e-07
-5.29296e-08
1.34032e-08
-3.76998e-09
1.20065e-09
-3.06286e-10
9.06238e-11
-2.67674e-11
6.62034e-12
-2.14931e-12
7.35258e-13
-2.50351e-13
-1.22895e-12
-9.31363e-13
1.13435e-12
8.13152e-14
-4.81321e-06
7.32699e-06
-1.42421e-06
6.78862e-07
-1.24541e-07
5.05385e-08
-1.27905e-08
3.58062e-09
-1.14833e-09
2.88338e-10
-8.84163e-11
2.37311e-11
-7.54419e-12
2.16106e-12
1.76587e-13
-1.31844e-12
-2.17764e-12
1.20418e-12
1.73157e-12
-7.31836e-13
4.5628e-06
-6.96056e-06
1.35536e-06
-6.45649e-07
1.19004e-07
-4.82707e-08
1.22463e-08
-3.44332e-09
1.09654e-09
-2.80596e-10
8.288e-11
-2.47328e-11
5.81852e-12
-2.0173e-12
6.32272e-13
-6.46313e-13
-1.38188e-12
-7.57609e-13
8.85672e-13
-1.35525e-13
-4.19342e-06
6.42652e-06
-1.2468e-06
5.95578e-07
-1.09132e-07
4.43357e-08
-1.12287e-08
3.14055e-09
-1.00618e-09
2.5319e-10
-7.7731e-11
2.06449e-11
-6.91713e-12
1.84826e-12
1.59849e-13
-1.63117e-12
-2.33643e-12
1.22906e-12
1.48057e-12
-8.94467e-13
3.8274e-06
-5.88063e-06
1.14287e-06
-5.45512e-07
1.00424e-07
-4.07442e-08
1.0352e-08
-2.90225e-09
9.228e-10
-2.37087e-10
6.95388e-11
-2.1144e-11
4.66677e-12
-1.70384e-12
4.58123e-13
-1.00607e-12
-1.43672e-12
-4.04919e-13
5.8881e-13
-2.98156e-13
-3.3735e-06
5.2085e-06
-1.00837e-06
4.82704e-07
-8.83115e-08
3.58955e-08
-9.09872e-09
2.53726e-09
-8.11508e-10
2.04363e-10
-6.30396e-11
1.6272e-11
-5.88854e-12
1.45758e-12
1.43865e-13
-1.75653e-12
-2.35913e-12
1.19971e-12
1.03168e-12
-8.67362e-13
2.93301e-06
-4.5401e-06
8.80386e-07
-4.2117e-07
7.74308e-08
-3.14031e-08
7.99619e-09
-2.23083e-09
7.07238e-10
-1.8308e-10
5.29644e-11
-1.65091e-11
3.32721e-12
-1.32253e-12
3.08252e-13
-1.39089e-12
-1.66962e-12
-2.13197e-15
2.01018e-13
-4.06576e-13
-2.44064e-06
3.79385e-06
-7.32893e-07
3.51572e-07
-6.42335e-08
2.60952e-08
-6.62872e-09
1.83453e-09
-5.88836e-10
1.46063e-10
-4.71962e-11
1.03571e-11
-5.45206e-12
3.66936e-13
-4.21114e-13
-2.2501e-12
-2.473e-12
1.15207e-12
7.08376e-13
-7.58942e-13
1.97188e-06
-3.0701e-06
5.95142e-07
-2.84732e-07
5.24279e-08
-2.11887e-08
5.41122e-09
-1.50301e-09
4.71025e-10
-1.24323e-10
3.50513e-11
-1.09692e-11
2.29438e-12
-3.41576e-13
9.53419e-13
-7.75077e-13
-8.28986e-13
9.08493e-13
1.73249e-13
-7.04731e-13
-1.44163e-06
2.26176e-06
-4.35324e-07
2.09705e-07
-3.83892e-08
1.55385e-08
-3.98399e-09
1.08959e-09
-3.48496e-10
8.93941e-11
-2.66281e-11
7.41989e-12
-2.59758e-12
1.1746e-12
6.38153e-13
-1.44361e-12
-2.44068e-12
3.13502e-13
3.5417e-13
-6.50521e-13
9.87536e-07
-1.5374e-06
2.96779e-07
-1.4108e-07
2.54671e-08
-1.02192e-08
2.58587e-09
-6.98571e-10
2.17015e-10
-5.88856e-11
1.28706e-11
-8.22222e-12
-2.20219e-12
-2.23403e-12
-1.68289e-12
-4.07427e-12
-3.32432e-12
6.81363e-13
8.90826e-14
-4.33681e-13
-4.5036e-07
6.8217e-07
-1.54462e-07
7.26861e-08
-1.57903e-08
6.08262e-09
-1.63912e-09
4.86238e-10
-1.47397e-10
4.23652e-11
-1.15196e-11
4.3097e-12
-2.43945e-13
2.24972e-12
1.40946e-12
-7.86047e-13
3.25261e-13
2.6563e-12
-7.58942e-13
-4.06576e-13
)
;

boundaryField
{
    movingWall
    {
        type            extrapolatedCalculated;
        value           nonuniform List<scalar> 
20
(
-4.5036e-07
6.8217e-07
-1.54462e-07
7.26861e-08
-1.57903e-08
6.08262e-09
-1.63912e-09
4.86238e-10
-1.47397e-10
4.23652e-11
-1.15196e-11
4.3097e-12
-2.43945e-13
2.24972e-12
1.40946e-12
-7.86047e-13
3.25261e-13
2.6563e-12
-7.58942e-13
-4.06576e-13
)
;
    }
    fixedWalls
    {
        type            extrapolatedCalculated;
        value           nonuniform List<scalar> 
60
(
1.50909e-07
-6.07861e-07
1.11071e-06
-2.0427e-06
3.44046e-06
-4.51074e-06
4.98374e-06
-5.07996e-06
5.03557e-06
-4.81321e-06
4.5628e-06
-4.19342e-06
3.8274e-06
-3.3735e-06
2.93301e-06
-2.44064e-06
1.97188e-06
-1.44163e-06
9.87536e-07
-4.5036e-07
7.31836e-13
4.06576e-13
8.13152e-13
1.35525e-13
6.50521e-13
-2.71051e-13
4.06576e-13
-5.42101e-13
8.13152e-14
-7.31836e-13
-1.35525e-13
-8.94467e-13
-2.98156e-13
-8.67362e-13
-4.06576e-13
-7.58942e-13
-7.04731e-13
-6.50521e-13
-4.33681e-13
-4.06576e-13
1.50909e-07
-6.28959e-07
1.01141e-07
-5.21527e-08
7.47683e-09
-3.2183e-09
7.60239e-10
-1.80823e-10
5.95671e-11
-1.17e-11
5.65027e-12
4.91923e-13
1.81207e-12
1.36097e-12
1.36923e-12
8.70131e-13
-3.1962e-13
-4.78454e-13
2.22637e-12
7.31836e-13
)
;
    }
    frontAndBack
    {
        type            empty;
    }
}


// ************************************************************************* //
