/*--------------------------------*- C++ -*----------------------------------*\
| =========                 |                                                 |
| \\      /  F ield         | OpenFOAM: The Open Source CFD Toolbox           |
|  \\    /   O peration     | Version:  2506                                  |
|   \\  /    A nd           | Website:  www.openfoam.com                      |
|    \\/     M anipulation  |                                                 |
\*---------------------------------------------------------------------------*/
FoamFile
{
    version     2.0;
    format      ascii;
    arch        "LSB;label=32;scalar=64";
    class       volScalarField;
    location    "3.5";
    object      enstrophyField;
}
// * * * * * * * * * * * * * * * * * * * * * * * * * * * * * * * * * * * * * //

dimensions      [0 0 -2 0 0 0 0];

internalField   nonuniform List<scalar> 
400
(
1.85676e-10
2.35254e-10
1.25868e-11
6.99004e-13
3.76548e-14
2.02424e-15
1.15873e-16
5.42259e-18
4.35437e-19
4.30366e-21
7.95922e-21
2.19447e-21
2.80669e-21
2.21327e-21
1.6942e-21
1.0646e-21
5.74264e-22
3.04642e-22
1.47646e-22
3.2621e-23
2.30393e-10
2.53706e-10
1.39133e-11
7.62571e-13
4.17687e-14
2.28683e-15
1.25078e-16
6.83062e-18
3.79284e-19
1.84325e-20
1.78924e-21
3.95516e-24
1.5192e-22
1.02776e-22
7.72825e-23
1.88777e-23
1.14903e-24
1.37874e-24
4.43964e-24
8.94527e-23
2.45916e-10
2.7544e-10
1.50912e-11
8.26251e-13
4.52316e-14
2.47254e-15
1.35494e-16
7.37367e-18
4.01115e-19
2.43185e-20
5.265e-22
4.93514e-22
1.97219e-22
2.8545e-22
1.87713e-22
4.74546e-23
3.36901e-24
3.69967e-24
1.23012e-23
2.32908e-22
2.64635e-10
3.07737e-10
1.69316e-11
9.3056e-13
5.1079e-14
2.80416e-15
1.53283e-16
8.43982e-18
4.64295e-19
2.20482e-20
2.80557e-21
1.07192e-22
5.54712e-22
4.7786e-22
3.58e-22
8.92815e-23
5.31298e-24
5.40448e-24
2.56283e-23
4.15186e-22
2.70113e-10
3.41272e-10
1.89795e-11
1.05283e-12
5.83027e-14
3.21857e-15
1.78156e-16
9.76507e-18
5.34198e-19
3.42112e-20
4.37775e-22
1.07934e-21
5.86824e-22
7.8313e-22
5.26337e-22
1.39562e-22
6.77865e-24
6.1569e-24
4.42632e-23
6.03263e-22
2.66204e-10
3.66886e-10
2.05416e-11
1.1499e-12
6.43458e-14
3.60438e-15
2.0088e-16
1.12781e-17
6.33644e-19
2.94503e-20
4.43955e-21
2.8043e-22
1.09457e-21
9.75371e-22
7.24914e-22
1.88047e-22
7.33599e-24
6.00813e-24
7.04166e-23
7.81444e-22
2.65678e-10
3.91865e-10
2.1988e-11
1.23365e-12
6.92642e-14
3.884e-15
2.18728e-16
1.22115e-17
6.78387e-19
4.55769e-20
4.53841e-22
1.68855e-21
9.79299e-22
1.28088e-21
8.7856e-22
2.42097e-22
6.45009e-24
4.27567e-24
1.01898e-22
9.08833e-22
2.71825e-10
4.18987e-10
2.35593e-11
1.32446e-12
7.44292e-14
4.1885e-15
2.34775e-16
1.32687e-17
7.56549e-19
3.46136e-20
5.76815e-21
4.32242e-22
1.52057e-21
1.36696e-21
1.02674e-21
2.8316e-22
4.6878e-24
2.03396e-24
1.36437e-22
9.80814e-22
2.81519e-10
4.47074e-10
2.51721e-11
1.41692e-12
7.98075e-14
4.49048e-15
2.53685e-16
1.42356e-17
7.89449e-19
5.42195e-20
4.7399e-22
2.08355e-21
1.21338e-21
1.57983e-21
1.09552e-21
3.19759e-22
2.89048e-24
3.92642e-25
1.74141e-22
9.98184e-22
2.93447e-10
4.76236e-10
2.68489e-11
1.51339e-12
8.52882e-14
4.81317e-15
2.70763e-16
1.53217e-17
8.80461e-19
3.99344e-20
6.70562e-21
4.70383e-22
1.68747e-21
1.50679e-21
1.15085e-21
3.34659e-22
1.3745e-24
3.31758e-26
2.12843e-22
9.55494e-22
3.0632e-10
5.05083e-10
2.85035e-11
1.60814e-12
9.07799e-14
5.1203e-15
2.89689e-16
1.63223e-17
9.03023e-19
6.22575e-20
6.13441e-22
2.18836e-21
1.19879e-21
1.58598e-21
1.11007e-21
3.42346e-22
3.73775e-25
1.12223e-24
2.4722e-22
8.6605e-22
3.19572e-10
5.33713e-10
3.01442e-11
1.70219e-12
9.61083e-14
5.43245e-15
3.06361e-16
1.73358e-17
1.00056e-18
4.59568e-20
7.14925e-21
3.72735e-22
1.54444e-21
1.35627e-21
1.05421e-21
3.20406e-22
7.19522e-26
2.84922e-24
2.76464e-22
7.4459e-22
3.32786e-10
5.60768e-10
3.16913e-11
1.79051e-12
1.01205e-13
5.71715e-15
3.23661e-16
1.82896e-17
1.01211e-18
6.86686e-20
9.23067e-22
1.96207e-21
9.35722e-22
1.29476e-21
9.09286e-22
2.87169e-22
7.53301e-27
5.29921e-24
2.92693e-22
6.07957e-22
3.453e-10
5.86421e-10
3.31566e-11
1.87422e-12
1.05938e-13
5.99296e-15
3.38531e-16
1.91509e-17
1.10552e-18
5.24625e-20
6.98714e-21
1.87395e-22
1.15184e-21
9.68649e-22
7.6696e-22
2.33188e-22
5.87835e-26
5.94013e-24
2.91882e-22
4.63069e-22
3.57563e-10
6.09535e-10
3.44744e-11
1.94925e-12
1.10252e-13
6.23387e-15
3.5297e-16
1.99759e-17
1.10953e-18
7.26274e-20
1.46781e-21
1.49484e-21
5.50151e-22
8.30476e-22
5.77316e-22
1.83409e-22
6.61173e-26
6.37512e-24
2.64059e-22
3.35129e-22
3.68776e-10
6.30355e-10
3.56611e-11
2.01688e-12
1.1407e-13
6.4553e-15
3.65027e-16
2.06463e-17
1.18817e-18
5.89647e-20
6.39552e-21
3.83318e-23
6.86377e-22
5.24392e-22
4.33151e-22
1.31086e-22
1.70875e-26
6.32787e-24
2.18622e-22
2.24531e-22
3.7741e-10
6.47191e-10
3.66142e-11
2.07075e-12
1.17142e-13
6.62599e-15
3.75037e-16
2.12441e-17
1.18432e-18
7.45573e-20
2.15642e-21
1.01454e-21
2.31378e-22
4.17899e-22
2.88144e-22
9.67985e-23
2.16953e-25
8.19698e-24
1.64969e-22
1.38553e-22
3.87878e-10
6.62142e-10
3.74657e-11
2.1192e-12
1.19877e-13
6.7835e-15
3.83739e-16
2.17058e-17
1.2409e-18
6.51938e-20
5.41628e-21
1.01671e-23
2.68703e-22
1.62387e-22
1.45487e-22
4.03501e-23
2.96598e-25
3.64734e-24
1.14332e-22
6.57204e-23
3.92844e-10
6.7266e-10
3.81233e-11
2.15997e-12
1.22396e-13
6.93635e-15
3.93201e-16
2.22896e-17
1.26029e-18
7.31982e-20
3.60237e-21
3.5337e-22
1.4908e-25
2.71268e-23
9.5535e-24
4.31453e-26
2.45297e-23
3.29826e-24
6.0858e-23
1.34444e-23
4.18972e-10
6.85604e-10
3.9583e-11
2.23282e-12
1.29874e-13
7.28647e-15
4.42736e-16
2.16988e-17
1.98394e-18
1.91622e-20
2.84754e-20
1.98109e-21
1.46486e-21
2.04484e-22
9.36e-24
7.78789e-24
1.01274e-23
2.28078e-23
4.71553e-23
1.8598e-23
)
;

boundaryField
{
    movingWall
    {
        type            calculated;
        value           nonuniform List<scalar> 
20
(
5.59471e-10
7.21914e-10
4.35659e-11
2.43024e-12
1.48726e-13
8.33323e-15
5.46115e-16
2.40934e-17
3.21859e-18
6.75252e-22
8.31136e-20
1.17718e-20
6.26233e-21
1.16657e-21
1.163e-22
6.71499e-26
4.61193e-25
3.24728e-23
2.86598e-22
7.13342e-23
)
;
    }
    fixedWalls
    {
        type            calculated;
        value           nonuniform List<scalar> 
60
(
4.23292e-09
4.5948e-09
4.99256e-09
5.56358e-09
6.13883e-09
6.58957e-09
7.03916e-09
7.52214e-09
8.0245e-09
8.54414e-09
9.05916e-09
9.56958e-09
1.00528e-08
1.05106e-08
1.09235e-08
1.1295e-08
1.15968e-08
1.18628e-08
1.2033e-08
1.22989e-08
9.75458e-23
4.61715e-22
1.21422e-21
2.20356e-21
3.28987e-21
4.36205e-21
5.25779e-21
5.90504e-21
6.26456e-21
6.31639e-21
6.07556e-21
5.60599e-21
4.93349e-21
4.1203e-21
3.23545e-21
2.34711e-21
1.55227e-21
8.75047e-22
3.42785e-22
9.87255e-23
1.0087e-10
2.15944e-10
1.06326e-11
6.18296e-13
3.09727e-14
1.60752e-15
9.63993e-17
3.35051e-18
4.54152e-19
1.53527e-21
2.27653e-20
1.23274e-20
1.22445e-20
1.00732e-20
7.49492e-21
4.56387e-21
2.24502e-21
1.18458e-21
6.48295e-22
7.08749e-23
)
;
    }
    frontAndBack
    {
        type            empty;
    }
}


// ************************************************************************* //
