/*--------------------------------*- C++ -*----------------------------------*\
| =========                 |                                                 |
| \\      /  F ield         | OpenFOAM: The Open Source CFD Toolbox           |
|  \\    /   O peration     | Version:  2506                                  |
|   \\  /    A nd           | Website:  www.openfoam.com                      |
|    \\/     M anipulation  |                                                 |
\*---------------------------------------------------------------------------*/
FoamFile
{
    version     2.0;
    format      ascii;
    arch        "LSB;label=32;scalar=64";
    class       volScalarField;
    location    "3.5";
    object      flowTypeField;
}
// * * * * * * * * * * * * * * * * * * * * * * * * * * * * * * * * * * * * * //

dimensions      [0 0 0 0 0 0 0];

internalField   nonuniform List<scalar> 
400
(
-0.105568
-0.0166707
-0.0336652
-0.0264399
-0.0467743
-0.0446689
-0.0747096
-0.0333331
-0.224781
0.425419
-0.454201
0.100346
-0.0157636
0.0408845
0.0583433
0.0829127
0.0789623
0.0448665
0.193559
0.448976
-0.188825
-0.0259625
-0.058626
-0.034972
-0.0717853
-0.0626336
-0.0763622
-0.0733838
-0.137939
0.0776228
-0.376571
0.81153
-0.319731
-0.129176
0.215419
0.607706
0.879872
0.806711
0.711737
0.290545
-0.153768
-0.0130287
-0.0465321
-0.00429259
-0.0457562
-0.0156523
0.00196598
-0.0434044
0.0975441
-0.065169
0.459771
-0.0136601
-0.181651
-0.754179
-0.154427
0.375247
0.787618
0.663455
0.510462
0.14946
-0.110894
0.00160537
-0.0332282
0.0276976
-0.0285498
0.040288
0.0319858
0.0637762
0.11275
0.218068
0.159162
0.441469
-0.190104
-0.777266
-0.556001
0.0483776
0.71694
0.614886
0.315968
0.0805281
-0.0553456
0.0172563
-0.0113119
0.0561219
0.00426916
0.0832507
0.0879053
0.110398
0.204087
0.212501
0.554159
0.16096
-0.19652
-0.440891
-0.658372
-0.321605
0.656258
0.53711
0.0677864
0.0538125
-0.00434291
0.0299005
0.00917787
0.0770134
0.0332153
0.114607
0.124619
0.150284
0.254535
0.258736
0.309838
0.248552
-0.0481938
-0.336936
-0.453491
-0.891109
0.61999
0.533848
-0.0806993
0.028915
0.032635
0.0374399
0.0226539
0.0890698
0.052571
0.136674
0.14563
0.192415
0.259844
0.310822
0.56113
0.216822
-0.10652
-0.178627
-0.30697
-0.554291
0.622139
0.5689
-0.200238
0.0221517
0.0521324
0.0388218
0.028198
0.0890212
0.0592243
0.135821
0.152876
0.18088
0.286838
0.272263
0.333588
0.148454
0.0308998
-0.141188
-0.190924
-0.272613
0.674802
0.659453
-0.176056
0.015948
0.0634685
0.0381542
0.0306938
0.0859886
0.0604155
0.134302
0.144369
0.193274
0.248929
0.308278
0.531267
0.220503
-0.0149942
-0.0528345
-0.122313
-0.154046
0.734105
0.847785
-0.14304
0.0118115
0.0689025
0.0352927
0.0306594
0.0780616
0.0578479
0.120844
0.137304
0.162636
0.259412
0.236954
0.30987
0.180797
0.0806762
-0.0304846
-0.0616845
-0.0463369
0.819458
0.945829
-0.109391
0.010818
0.0718421
0.0322561
0.0300385
0.0705099
0.054189
0.11199
0.121133
0.164934
0.208882
0.27119
0.462065
0.21904
0.0687906
0.0232446
-0.0224144
-0.000158659
0.898223
0.760193
-0.0705514
0.0131729
0.0726682
0.0284901
0.0285618
0.0610098
0.0496648
0.0961748
0.11054
0.130876
0.21363
0.184361
0.278768
0.315201
0.132243
0.0487919
0.0181448
0.0570512
0.955282
0.585754
-0.0585791
0.0176698
0.0723916
0.0250827
0.0270738
0.0527809
0.0450246
0.0856081
0.0929469
0.129922
0.157761
0.227024
0.378075
0.240973
0.171197
0.0927796
0.0515858
0.0889849
0.983443
0.511242
-0.0339336
0.0240171
0.0715952
0.0216483
0.0254389
0.0441279
0.040771
0.0709106
0.0831503
0.0966405
0.164762
0.123929
0.261553
0.527976
0.209199
0.136365
0.0908048
0.131267
0.952485
0.376009
-0.0362417
0.0414619
0.0695885
0.0185724
0.0237251
0.0367288
0.0362057
0.0610954
0.0659265
0.0968631
0.10333
0.188183
0.303417
0.301205
0.31669
0.180611
0.127469
0.157236
0.935931
0.315273
-0.0154997
0.0604786
0.0674131
0.0157909
0.0220912
0.0297639
0.0326781
0.048574
0.0593483
0.0643412
0.120724
0.0686453
0.261889
0.790489
0.32306
0.252108
0.16239
0.175208
0.961733
0.154476
-0.0264486
0.0946883
0.0665053
0.0138279
0.0211276
0.0249105
0.0295576
0.0428852
0.0445463
0.0718221
0.058765
0.155079
0.290018
0.3783
0.495748
0.274292
0.16998
0.121664
0.803348
-0.125951
-0.0114009
0.13772
0.0615803
0.0113858
0.0192085
0.0192994
0.0270495
0.0321975
0.0431241
0.0414176
0.0868542
0.0498239
0.277493
0.900091
0.501018
0.451339
0.288331
0.240188
0.755751
0.184763
-0.00754954
0.254587
0.0612342
0.00971436
0.0170786
0.0144704
0.020195
0.0252533
0.0226093
0.0418337
0.0245848
0.115872
0.265055
0.595745
0.984717
0.747723
0.755036
0.964985
-0.0191612
0.423161
-0.0351793
0.555887
0.0335
0.00485002
0.00842597
0.00682074
0.00718865
0.0163688
-0.00979962
0.0722434
-0.157203
0.53216
-0.369014
0.365881
0.128592
0.373155
0.671212
0.378053
-0.185448
0.337668
0.286753
0.512756
)
;

boundaryField
{
    movingWall
    {
        type            calculated;
        value           nonuniform List<scalar> 
20
(
0.740914
0.262116
0.245112
0.253184
0.234139
0.242382
0.200134
0.293168
-0.00953226
0.932653
-0.31561
0.177737
-0.040345
0.0842584
0.124034
0.835903
0.639699
0.296319
0.143888
0.274712
)
;
    }
    fixedWalls
    {
        type            calculated;
        value           nonuniform List<scalar> 
60
(
-0.0199903
-0.0323631
-0.0189336
-0.00185565
0.0174386
0.0318523
0.0398446
0.0415856
0.0410276
0.0381847
0.0351304
0.0312667
0.0277699
0.0241903
0.0210081
0.0180976
0.0160217
0.0135016
0.0125138
0.00654953
0.155848
0.0737453
0.0304302
0.0173698
0.0127091
0.00771724
0.00679604
0.00596718
0.00461206
0.00413817
0.00462948
0.00479534
0.00564648
0.00794432
0.010239
0.0134051
0.0161425
0.033312
0.105098
0.180081
0.801833
0.272422
0.299493
0.277992
0.293468
0.305751
0.263674
0.389452
0.0731505
0.782983
-0.221409
0.0471271
-0.00841266
0.0175041
0.0210341
0.0231875
0.0132235
0.00407445
0.0628742
0.287929
)
;
    }
    frontAndBack
    {
        type            empty;
    }
}


// ************************************************************************* //
