/*--------------------------------*- C++ -*----------------------------------*\
| =========                 |                                                 |
| \\      /  F ield         | OpenFOAM: The Open Source CFD Toolbox           |
|  \\    /   O peration     | Version:  2506                                  |
|   \\  /    A nd           | Website:  www.openfoam.com                      |
|    \\/     M anipulation  |                                                 |
\*---------------------------------------------------------------------------*/
FoamFile
{
    version     2.0;
    format      ascii;
    arch        "LSB;label=32;scalar=64";
    class       surfaceScalarField;
    location    "3.5";
    object      fluxField;
}
// * * * * * * * * * * * * * * * * * * * * * * * * * * * * * * * * * * * * * //

dimensions      [0 3 -1 0 0 0 0];

oriented        oriented;

internalField   nonuniform List<scalar> 
760
(
-5e-05
-1.28764e-13
-5e-05
2.79691e-14
-5e-05
-6.07676e-15
-5e-05
1.1887e-15
-5e-05
-2.76008e-16
-5e-05
1.39555e-19
-5e-05
-2.99859e-17
-5e-05
-1.71182e-17
-5e-05
-8.83871e-18
-5e-05
-4.68684e-18
-5e-05
-1.82649e-18
-5e-05
-9.00235e-19
-5e-05
-8.14144e-19
-5e-05
-1.60455e-18
-5e-05
-2.67313e-18
-5e-05
-3.4281e-18
-5e-05
-3.08857e-18
-5e-05
-1.9492e-18
-5e-05
-1.95062e-18
-2.55877e-18
-5e-05
2.59213e-13
-5e-05
-6.03021e-14
-5e-05
1.46651e-14
-5e-05
-3.54247e-15
-5e-05
7.27601e-16
-5e-05
-2.90691e-16
-5e-05
-7.13363e-18
-5e-05
-4.4188e-17
-5e-05
-1.30077e-17
-5e-05
-7.58394e-18
-5e-05
-2.06935e-18
-5e-05
-7.24948e-19
-5e-05
-8.89236e-19
-5e-05
-2.67524e-18
-5e-05
-4.91746e-18
-5e-05
-6.53446e-18
-5e-05
-5.99566e-18
-5e-05
-3.68372e-18
-5e-05
-3.85693e-18
-5.01139e-18
-5e-05
-3.65137e-13
-5e-05
8.74067e-14
-5e-05
-2.18683e-14
-5e-05
4.44734e-15
-5e-05
-1.44162e-15
-5e-05
1.31814e-16
-5e-05
-1.38096e-16
-5e-05
-2.33469e-17
-5e-05
-2.06836e-17
-5e-05
-4.93787e-18
-5e-05
-5.99429e-19
-5e-05
1.02926e-18
-5e-05
3.56997e-20
-5e-05
-2.95905e-18
-5e-05
-6.51062e-18
-5e-05
-9.05124e-18
-5e-05
-8.4447e-18
-5e-05
-5.17501e-18
-5e-05
-5.51294e-18
-7.27652e-18
-5e-05
3.86901e-13
-5e-05
-1.09884e-13
-5e-05
2.45116e-14
-5e-05
-7.08265e-15
-5e-05
1.37076e-15
-5e-05
-5.14763e-16
-5e-05
2.89233e-17
-5e-05
-5.50632e-17
-5e-05
-5.99294e-18
-5e-05
-1.70357e-18
-5e-05
4.42103e-18
-5e-05
4.33454e-18
-5e-05
2.23689e-18
-5e-05
-2.29783e-18
-5e-05
-7.28138e-18
-5e-05
-1.08441e-17
-5e-05
-1.02994e-17
-5e-05
-6.26265e-18
-5e-05
-6.87224e-18
-9.28663e-18
-5e-05
-3.15979e-13
-5e-05
9.32034e-14
-5e-05
-2.23707e-14
-5e-05
6.29586e-15
-5e-05
-1.7461e-15
-5e-05
3.5175e-16
-5e-05
-1.51137e-16
-5e-05
1.27421e-17
-5e-05
-5.76174e-18
-5e-05
1.08034e-17
-5e-05
1.08154e-17
-5e-05
9.63941e-18
-5e-05
5.5851e-18
-5e-05
-6.34065e-19
-5e-05
-7.16498e-18
-5e-05
-1.18134e-17
-5e-05
-1.14737e-17
-5e-05
-6.92668e-18
-5e-05
-7.87316e-18
-1.09786e-17
-5e-05
2.95419e-13
-5e-05
-8.23646e-14
-5e-05
1.97767e-14
-5e-05
-5.55083e-15
-5e-05
1.38553e-15
-5e-05
-3.95337e-16
-5e-05
1.011e-16
-5e-05
-1.75309e-17
-5e-05
2.56758e-17
-5e-05
1.94022e-17
-5e-05
2.07228e-17
-5e-05
1.58114e-17
-5e-05
1.00115e-17
-5e-05
1.873e-18
-5e-05
-6.19599e-18
-5e-05
-1.1966e-17
-5e-05
-1.19646e-17
-5e-05
-7.12895e-18
-5e-05
-8.50347e-18
-1.23162e-17
-5e-05
-2.85968e-13
-5e-05
7.65627e-14
-5e-05
-1.82186e-14
-5e-05
4.90756e-15
-5e-05
-1.20687e-15
-5e-05
3.40501e-16
-5e-05
-5.65942e-17
-5e-05
5.56478e-17
-5e-05
3.00849e-17
-5e-05
3.62665e-17
-5e-05
2.95042e-17
-5e-05
2.31266e-17
-5e-05
1.48897e-17
-5e-05
5.03866e-18
-5e-05
-4.52684e-18
-5e-05
-1.13486e-17
-5e-05
-1.17896e-17
-5e-05
-6.92051e-18
-5e-05
-8.75857e-18
-1.32775e-17
-5e-05
2.77603e-13
-5e-05
-7.15504e-14
-5e-05
1.72599e-14
-5e-05
-4.36785e-15
-5e-05
1.18123e-15
-5e-05
-2.21683e-16
-5e-05
1.31569e-16
-5e-05
3.72238e-17
-5e-05
5.7692e-17
-5e-05
4.61431e-17
-5e-05
3.9796e-17
-5e-05
2.99566e-17
-5e-05
2.00341e-17
-5e-05
8.49615e-18
-5e-05
-2.34018e-18
-5e-05
-1.01167e-17
-5e-05
-1.10542e-17
-5e-05
-6.32422e-18
-5e-05
-8.66823e-18
-1.38591e-17
-5e-05
-2.71791e-13
-5e-05
6.96246e-14
-5e-05
-1.6343e-14
-5e-05
4.33061e-15
-5e-05
-9.28524e-16
-5e-05
3.45737e-16
-5e-05
1.5353e-17
-5e-05
9.08317e-17
-5e-05
6.32632e-17
-5e-05
5.97873e-17
-5e-05
4.77552e-17
-5e-05
3.65746e-17
-5e-05
2.48028e-17
-5e-05
1.20055e-17
-5e-05
1.22828e-19
-5e-05
-8.4245e-18
-5e-05
-9.85499e-18
-5e-05
-5.43701e-18
-5e-05
-8.26128e-18
-1.40816e-17
-5e-05
2.58113e-13
-5e-05
-6.47961e-14
-5e-05
1.56119e-14
-5e-05
-3.75263e-15
-5e-05
1.07703e-15
-5e-05
-1.24658e-16
-5e-05
1.58693e-16
-5e-05
7.49758e-17
-5e-05
8.2989e-17
-5e-05
6.70022e-17
-5e-05
5.53554e-17
-5e-05
4.18741e-17
-5e-05
2.90205e-17
-5e-05
1.5238e-17
-5e-05
2.65301e-18
-5e-05
-6.46213e-18
-5e-05
-8.35067e-18
-5e-05
-4.32037e-18
-5e-05
-7.59698e-18
-1.39735e-17
-5e-05
-2.46812e-13
-5e-05
6.21475e-14
-5e-05
-1.45177e-14
-5e-05
3.8379e-15
-5e-05
-7.51486e-16
-5e-05
3.45007e-16
-5e-05
5.78093e-17
-5e-05
1.13996e-16
-5e-05
8.47041e-17
-5e-05
7.55814e-17
-5e-05
6.01579e-17
-5e-05
4.60754e-17
-5e-05
3.22595e-17
-5e-05
1.79813e-17
-5e-05
5.02343e-18
-5e-05
-4.39674e-18
-5e-05
-6.66095e-18
-5e-05
-3.08964e-18
-5e-05
-6.71748e-18
-1.3565e-17
-5e-05
2.25738e-13
-5e-05
-5.58146e-14
-5e-05
1.34753e-14
-5e-05
-3.12786e-15
-5e-05
9.52485e-16
-5e-05
-5.77282e-17
-5e-05
1.70427e-16
-5e-05
9.63232e-17
-5e-05
9.66329e-17
-5e-05
7.82188e-17
-5e-05
6.3712e-17
-5e-05
4.84683e-17
-5e-05
3.44085e-17
-5e-05
1.99913e-17
-5e-05
7.04662e-18
-5e-05
-2.41357e-18
-5e-05
-4.93447e-18
-5e-05
-1.80693e-18
-5e-05
-5.70139e-18
-1.28804e-17
-5e-05
-2.08698e-13
-5e-05
5.20385e-14
-5e-05
-1.21037e-14
-5e-05
3.22595e-15
-5e-05
-5.74808e-16
-5e-05
3.24303e-16
-5e-05
8.34525e-17
-5e-05
1.22907e-16
-5e-05
9.35823e-17
-5e-05
8.1112e-17
-5e-05
6.42968e-17
-5e-05
4.929e-17
-5e-05
3.51903e-17
-5e-05
2.11226e-17
-5e-05
8.55098e-18
-5e-05
-6.4454e-19
-5e-05
-3.27975e-18
-5e-05
-6.0945e-19
-5e-05
-4.61651e-18
-1.19395e-17
-5e-05
1.81719e-13
-5e-05
-4.42841e-14
-5e-05
1.07323e-14
-5e-05
-2.39193e-15
-5e-05
7.89011e-16
-5e-05
2.58221e-19
-5e-05
1.66963e-16
-5e-05
1.0399e-16
-5e-05
9.77315e-17
-5e-05
7.85821e-17
-5e-05
6.31361e-17
-5e-05
4.80459e-17
-5e-05
3.45505e-17
-5e-05
2.12217e-17
-5e-05
9.42787e-18
-5e-05
7.80594e-19
-5e-05
-1.84339e-18
-5e-05
4.08347e-19
-5e-05
-3.55712e-18
-1.07605e-17
-5e-05
-1.59927e-13
-5e-05
3.93639e-14
-5e-05
-9.06498e-15
-5e-05
2.4639e-15
-5e-05
-3.65803e-16
-5e-05
2.83734e-16
-5e-05
9.87187e-17
-5e-05
1.17648e-16
-5e-05
8.97751e-17
-5e-05
7.52134e-17
-5e-05
5.89606e-17
-5e-05
4.49193e-17
-5e-05
3.23414e-17
-5e-05
2.0215e-17
-5e-05
9.56383e-18
-5e-05
1.74614e-18
-5e-05
-7.22337e-19
-5e-05
1.11755e-18
-5e-05
-2.61282e-18
-9.36059e-18
-5e-05
1.29413e-13
-5e-05
-3.13232e-14
-5e-05
7.7006e-15
-5e-05
-1.59615e-15
-5e-05
6.23914e-16
-5e-05
4.94853e-17
-5e-05
1.50938e-16
-5e-05
9.63593e-17
-5e-05
8.46476e-17
-5e-05
6.63111e-17
-5e-05
5.21553e-17
-5e-05
3.93099e-17
-5e-05
2.83373e-17
-5e-05
1.78794e-17
-5e-05
8.79196e-18
-5e-05
2.1412e-18
-5e-05
3.90478e-20
-5e-05
1.54163e-18
-5e-05
-1.78125e-18
-7.79335e-18
-5e-05
-1.04705e-13
-5e-05
2.54472e-14
-5e-05
-5.63931e-15
-5e-05
1.71776e-15
-5e-05
-1.51498e-16
-5e-05
2.3571e-16
-5e-05
9.35443e-17
-5e-05
9.4535e-17
-5e-05
6.87572e-17
-5e-05
5.55199e-17
-5e-05
4.24747e-17
-5e-05
3.20403e-17
-5e-05
2.30708e-17
-5e-05
1.47411e-17
-5e-05
7.54994e-18
-5e-05
2.33378e-18
-5e-05
6.73668e-19
-5e-05
1.79244e-18
-5e-05
-1.00701e-18
-6.12245e-18
-5e-05
7.14617e-14
-5e-05
-1.65128e-14
-5e-05
4.21199e-15
-5e-05
-5.07302e-16
-5e-05
3.54677e-16
-5e-05
1.06782e-16
-5e-05
9.31782e-17
-5e-05
6.87437e-17
-5e-05
5.12133e-17
-5e-05
4.02921e-17
-5e-05
3.04295e-17
-5e-05
2.28478e-17
-5e-05
1.64268e-17
-5e-05
1.058e-17
-5e-05
5.58055e-18
-5e-05
1.96335e-18
-5e-05
8.19622e-19
-5e-05
1.78599e-18
-5e-05
-1.35074e-19
-4.32563e-18
-5e-05
-5.69341e-14
-5e-05
2.60282e-14
-5e-05
-6.21629e-15
-5e-05
2.5005e-15
-5e-05
-5.50401e-16
-5e-05
2.75269e-16
-5e-05
-9.3875e-18
-5e-05
5.4029e-17
-5e-05
2.19378e-17
-5e-05
2.19585e-17
-5e-05
1.48593e-17
-5e-05
1.13411e-17
-5e-05
7.91978e-18
-5e-05
5.01158e-18
-5e-05
2.5134e-18
-5e-05
7.16156e-19
-5e-05
2.87003e-19
-5e-05
1.22744e-18
-5e-05
3.94965e-19
-2.28091e-18
-5e-05
-5e-05
-5e-05
-5e-05
-5e-05
-5e-05
-5e-05
-5e-05
-5e-05
-5e-05
-5e-05
-5e-05
-5e-05
-5e-05
-5e-05
-5e-05
-5e-05
-5e-05
-5e-05
)
;

boundaryField
{
    movingWall
    {
        type            calculated;
        value           uniform -0;
    }
    fixedWalls
    {
        type            calculated;
        value           nonuniform List<scalar> 
60
(
5e-05
5e-05
5e-05
5e-05
5e-05
5e-05
5e-05
5e-05
5e-05
5e-05
5e-05
5e-05
5e-05
5e-05
5e-05
5e-05
5e-05
5e-05
5e-05
5e-05
-5e-05
-5e-05
-5e-05
-5e-05
-5e-05
-5e-05
-5e-05
-5e-05
-5e-05
-5e-05
-5e-05
-5e-05
-5e-05
-5e-05
-5e-05
-5e-05
-5e-05
-5e-05
-5e-05
-5e-05
0
0
0
0
0
0
0
0
0
0
0
0
0
0
0
0
0
0
0
0
)
;
    }
    frontAndBack
    {
        type            empty;
    }
}


// ************************************************************************* //
