/*--------------------------------*- C++ -*----------------------------------*\
| =========                 |                                                 |
| \\      /  F ield         | OpenFOAM: The Open Source CFD Toolbox           |
|  \\    /   O peration     | Version:  2506                                  |
|   \\  /    A nd           | Website:  www.openfoam.com                      |
|    \\/     M anipulation  |                                                 |
\*---------------------------------------------------------------------------*/
FoamFile
{
    version     2.0;
    format      ascii;
    arch        "LSB;label=32;scalar=64";
    class       volTensorField;
    location    "3.5";
    object      gradU;
}
// * * * * * * * * * * * * * * * * * * * * * * * * * * * * * * * * * * * * * //

dimensions      [0 0 -1 0 0 0 0];

internalField   nonuniform List<tensor> 
400
(
(6.65966e-07 1.74077e-05 0 -1.86287e-06 -5.15056e-07 0 0 0 0)
(-7.40835e-07 -2.13221e-05 0 3.69064e-07 1.11876e-07 0 0 0 0)
(1.25448e-07 4.85217e-06 0 -1.65149e-07 -2.4307e-08 0 0 0 0)
(-5.69075e-08 -1.15046e-06 0 3.19124e-08 4.75479e-09 0 0 0 0)
(8.58086e-09 2.62014e-07 0 -1.24124e-08 -1.10403e-09 0 0 0 0)
(-3.21886e-09 -6.08178e-08 0 2.80982e-09 5.58221e-13 0 0 0 0)
(8.80182e-10 1.41348e-08 0 -1.08843e-09 -1.19944e-10 0 0 0 0)
(-1.1235e-10 -3.18416e-09 0 1.09044e-10 -6.84729e-11 0 0 0 0)
(9.49219e-11 7.53121e-10 0 -1.80086e-10 -3.53548e-11 0 0 0 0)
(7.04731e-12 -1.60593e-10 0 -6.78168e-11 -1.87474e-11 0 0 0 0)
(1.29562e-11 4.18716e-11 0 -8.42967e-11 -7.30594e-12 0 0 0 0)
(4.09286e-12 -7.20563e-12 0 -7.34547e-11 -3.60094e-12 0 0 0 0)
(5.06865e-12 1.41358e-12 0 -7.35089e-11 -3.25658e-12 0 0 0 0)
(7.77915e-12 -2.12481e-12 0 -6.86571e-11 -6.41818e-12 0 0 0 0)
(1.20617e-11 -1.55674e-12 0 -5.97666e-11 -1.06925e-11 0 0 0 0)
(1.45825e-11 -2.06378e-13 0 -4.63496e-11 -1.37124e-11 0 0 0 0)
(1.20346e-11 1.28255e-12 0 -3.26074e-11 -1.23543e-11 0 0 0 0)
(7.31836e-12 1.15648e-12 0 -2.35272e-11 -7.79682e-12 0 0 0 0)
(1.00289e-11 -4.07111e-13 0 -1.75912e-11 -7.8025e-12 0 0 0 0)
(1.09775e-11 4.44518e-12 0 -3.63208e-12 -1.02351e-11 0 0 0 0)
(-2.15977e-06 -1.78108e-05 0 3.65507e-06 1.55191e-06 0 0 0 0)
(2.43855e-06 2.18129e-05 0 -7.12927e-07 -3.53085e-07 0 0 0 0)
(-4.626e-07 -4.95929e-06 0 3.15794e-07 8.29674e-08 0 0 0 0)
(2.09644e-07 1.17366e-06 0 -6.1302e-08 -1.89247e-08 0 0 0 0)
(-3.76834e-08 -2.66768e-07 0 2.22607e-08 4.01443e-09 0 0 0 0)
(1.45428e-08 6.18019e-08 0 -5.82691e-09 -1.16332e-09 0 0 0 0)
(-3.58098e-09 -1.42038e-08 0 1.61253e-09 9.14092e-11 0 0 0 0)
(1.02075e-09 3.26875e-09 0 -4.27365e-10 -1.08279e-10 0 0 0 0)
(-2.71728e-10 -7.03395e-10 0 1.67563e-10 -1.66761e-11 0 0 0 0)
(8.86606e-11 1.88641e-10 0 -3.36103e-12 -1.15884e-11 0 0 0 0)
(-1.85941e-11 -2.67251e-11 0 3.30953e-11 -9.71438e-13 0 0 0 0)
(6.66784e-12 1.1255e-11 0 1.40675e-11 7.01149e-13 0 0 0 0)
(-2.1684e-13 -4.23082e-12 0 1.32002e-11 -3.00367e-13 0 0 0 0)
(5.99022e-12 -5.31113e-12 0 9.02598e-12 -4.28278e-12 0 0 0 0)
(1.02186e-11 -5.73747e-12 0 6.69495e-12 -8.97731e-12 0 0 0 0)
(1.25496e-11 -1.45537e-12 0 4.68917e-12 -1.24254e-11 0 0 0 0)
(1.07878e-11 4.63302e-12 0 3.11708e-12 -1.16284e-11 0 0 0 0)
(7.69784e-12 3.39529e-12 0 1.73472e-12 -6.93805e-12 0 0 0 0)
(9.89334e-12 -2.03114e-12 0 9.48677e-13 -7.62524e-12 0 0 0 0)
(1.02186e-11 1.35924e-11 0 2.1684e-13 -9.8105e-12 0 0 0 0)
(3.60811e-06 1.86065e-05 0 -3.57083e-06 -2.4974e-06 0 0 0 0)
(-4.08011e-06 -2.27911e-05 0 6.79741e-07 5.90835e-07 0 0 0 0)
(7.77073e-07 5.18633e-06 0 -3.07527e-07 -1.46134e-07 0 0 0 0)
(-3.50441e-07 -1.22941e-06 0 5.60821e-08 3.19592e-08 0 0 0 0)
(6.40559e-08 2.79775e-07 0 -2.09961e-08 -8.6769e-09 0 0 0 0)
(-2.38671e-08 -6.47408e-08 0 5.58042e-09 1.69002e-09 0 0 0 0)
(6.27975e-09 1.51898e-08 0 -1.2719e-09 -5.23849e-10 0 0 0 0)
(-1.55735e-09 -3.29224e-09 0 5.47983e-10 8.33646e-11 0 0 0 0)
(5.18818e-10 8.49811e-10 0 -4.58618e-11 -3.07034e-11 0 0 0 0)
(-1.27367e-10 -1.44888e-10 0 7.56502e-11 1.05843e-11 0 0 0 0)
(3.05203e-11 5.41611e-11 0 2.17111e-11 5.87967e-12 0 0 0 0)
(-1.58022e-11 -6.53456e-12 0 2.48824e-11 7.01683e-12 0 0 0 0)
(-5.42101e-14 -3.57035e-12 0 1.62901e-11 3.69974e-12 0 0 0 0)
(1.30104e-12 -1.08018e-11 0 1.30917e-11 -1.13526e-12 0 0 0 0)
(7.75205e-12 -9.69941e-12 0 9.6765e-12 -6.37265e-12 0 0 0 0)
(1.09775e-11 -2.85746e-12 0 6.88468e-12 -1.00671e-11 0 0 0 0)
(9.1073e-12 6.76995e-12 0 4.17418e-12 -9.79615e-12 0 0 0 0)
(5.09575e-12 5.15963e-12 0 2.43945e-12 -5.96517e-12 0 0 0 0)
(8.48388e-12 -3.27956e-12 0 1.68051e-12 -6.62403e-12 0 0 0 0)
(9.86624e-12 2.18809e-11 0 2.98156e-13 -9.06053e-12 0 0 0 0)
(-5.05086e-06 -1.97174e-05 0 3.28845e-06 3.00815e-06 0 0 0 0)
(5.70185e-06 2.41642e-05 0 -6.44579e-07 -7.89164e-07 0 0 0 0)
(-1.08626e-06 -5.51817e-06 0 3.0104e-07 1.8552e-07 0 0 0 0)
(4.96175e-07 1.31112e-06 0 -5.3108e-08 -4.612e-08 0 0 0 0)
(-8.8185e-08 -2.97037e-07 0 2.25847e-08 1.12495e-08 0 0 0 0)
(3.4267e-08 6.99549e-08 0 -4.9338e-09 -2.58631e-09 0 0 0 0)
(-8.61347e-09 -1.58105e-08 0 1.69854e-09 6.68076e-10 0 0 0 0)
(2.24677e-09 3.76189e-09 0 -3.46592e-10 -1.26865e-10 0 0 0 0)
(-7.44007e-10 -7.76175e-10 0 1.87459e-10 5.87625e-11 0 0 0 0)
(1.56288e-10 2.25224e-10 0 1.5233e-11 1.29372e-11 0 0 0 0)
(-6.94703e-11 -3.02926e-11 0 4.46149e-11 2.00818e-11 0 0 0 0)
(1.24683e-12 9.07507e-12 0 2.37169e-11 1.32211e-11 0 0 0 0)
(-1.19533e-11 -1.23829e-11 0 2.09251e-11 8.80474e-12 0 0 0 0)
(-7.04731e-13 -1.53835e-11 0 1.55312e-11 2.64488e-12 0 0 0 0)
(4.03865e-12 -1.46693e-11 0 1.20889e-11 -3.08306e-12 0 0 0 0)
(7.10152e-12 -4.87887e-12 0 8.48388e-12 -7.17155e-12 0 0 0 0)
(6.28837e-12 8.73497e-12 0 5.47522e-12 -7.41874e-12 0 0 0 0)
(5.25838e-12 6.56741e-12 0 3.27971e-12 -4.35057e-12 0 0 0 0)
(7.77915e-12 -5.12649e-12 0 2.03288e-12 -5.43719e-12 0 0 0 0)
(8.15862e-12 2.92769e-11 0 4.60786e-13 -8.0404e-12 0 0 0 0)
(6.25199e-06 2.08255e-05 0 -2.4173e-06 -2.81152e-06 0 0 0 0)
(-7.06753e-06 -2.56137e-05 0 5.11815e-07 8.12351e-07 0 0 0 0)
(1.36854e-06 5.92938e-06 0 -2.31707e-07 -1.87529e-07 0 0 0 0)
(-6.28896e-07 -1.40368e-06 0 4.74057e-08 5.3514e-08 0 0 0 0)
(1.1223e-07 3.23309e-07 0 -1.81666e-08 -1.24674e-08 0 0 0 0)
(-4.47533e-08 -7.53223e-08 0 4.90946e-09 3.46605e-09 0 0 0 0)
(1.0867e-08 1.76493e-08 0 -1.22696e-09 -7.20241e-10 0 0 0 0)
(-3.06843e-09 -3.90156e-09 0 5.17734e-10 2.71221e-10 0 0 0 0)
(8.80643e-10 9.89614e-10 0 -4.40186e-11 9.24799e-13 0 0 0 0)
(-2.70237e-10 -1.83569e-10 0 7.80083e-11 5.00277e-11 0 0 0 0)
(3.90042e-11 5.4445e-11 0 2.48553e-11 2.55777e-11 0 0 0 0)
(-3.9465e-11 -1.78116e-11 0 2.865e-11 2.12195e-11 0 0 0 0)
(-8.21283e-12 -1.41466e-11 0 2.0112e-11 1.33928e-11 0 0 0 0)
(-7.53521e-12 -2.26896e-11 0 1.68864e-11 6.65508e-12 0 0 0 0)
(6.50521e-13 -1.95158e-11 0 1.29291e-11 4.65613e-13 0 0 0 0)
(4.36391e-12 -7.19314e-12 0 9.51387e-12 -3.87729e-12 0 0 0 0)
(3.90313e-12 9.59093e-12 0 5.9089e-12 -4.69742e-12 0 0 0 0)
(1.68051e-12 7.14118e-12 0 3.63208e-12 -2.65611e-12 0 0 0 0)
(5.63785e-12 -6.96939e-12 0 2.43945e-12 -4.00368e-12 0 0 0 0)
(7.42678e-12 3.53585e-11 0 6.23416e-13 -6.76775e-12 0 0 0 0)
(-6.95634e-06 -2.17166e-05 0 1.3574e-06 2.44559e-06 0 0 0 0)
(7.88744e-06 2.67881e-05 0 -3.00094e-07 -7.02272e-07 0 0 0 0)
(-1.55067e-06 -6.27701e-06 0 1.32615e-07 1.6859e-07 0 0 0 0)
(7.09715e-07 1.48618e-06 0 -3.03233e-08 -4.73867e-08 0 0 0 0)
(-1.30681e-07 -3.47085e-07 0 1.16512e-08 1.25265e-08 0 0 0 0)
(5.12067e-08 8.17021e-08 0 -3.20227e-09 -2.98835e-09 0 0 0 0)
(-1.30052e-08 -1.90053e-08 0 1.03864e-09 1.00895e-09 0 0 0 0)
(3.42968e-09 4.48306e-09 0 -2.6628e-10 -1.21092e-10 0 0 0 0)
(-1.1837e-09 -9.97369e-10 0 1.2837e-10 1.2575e-10 0 0 0 0)
(2.25162e-10 2.49877e-10 0 7.18284e-12 3.43955e-11 0 0 0 0)
(-1.18883e-10 -5.91008e-11 0 3.51282e-11 3.96295e-11 0 0 0 0)
(-3.49655e-12 -3.10975e-12 0 2.05727e-11 2.46879e-11 0 0 0 0)
(-2.3744e-11 -2.69473e-11 0 1.98409e-11 1.77056e-11 0 0 0 0)
(-7.86047e-12 -2.83108e-11 0 1.58565e-11 1.00283e-11 0 0 0 0)
(-3.38813e-12 -2.52017e-11 0 1.28749e-11 3.87598e-12 0 0 0 0)
(1.0842e-13 -1.00419e-11 0 9.35124e-12 -6.10302e-13 0 0 0 0)
(4.33681e-13 9.95614e-12 0 6.12574e-12 -1.9635e-12 0 0 0 0)
(1.81604e-12 7.26115e-12 0 3.79471e-12 -8.09064e-13 0 0 0 0)
(4.77049e-12 -9.23813e-12 0 2.62919e-12 -2.52123e-12 0 0 0 0)
(5.09575e-12 4.00484e-11 0 5.14996e-13 -5.35068e-12 0 0 0 0)
(7.30929e-06 2.25688e-05 0 -4.82365e-07 -2.32555e-06 0 0 0 0)
(-8.29231e-06 -2.78907e-05 0 1.04459e-07 6.35709e-07 0 0 0 0)
(1.63831e-06 6.58426e-06 0 -4.71792e-08 -1.51981e-07 0 0 0 0)
(-7.4986e-07 -1.55975e-06 0 1.10153e-08 4.18336e-08 0 0 0 0)
(1.39351e-07 3.67707e-07 0 -4.48711e-09 -1.03696e-08 0 0 0 0)
(-5.53659e-08 -8.68398e-08 0 1.29638e-09 2.94335e-09 0 0 0 0)
(1.3803e-08 2.05165e-08 0 -3.98932e-10 -6.30775e-10 0 0 0 0)
(-3.97864e-09 -4.78475e-09 0 1.57209e-10 2.92715e-10 0 0 0 0)
(1.15408e-09 1.1451e-09 0 -1.97054e-11 1.76367e-11 0 0 0 0)
(-3.63506e-10 -2.69689e-10 0 3.22279e-11 6.74571e-11 0 0 0 0)
(5.24212e-11 4.47374e-11 0 1.46096e-11 3.51256e-11 0 0 0 0)
(-5.4698e-11 -3.97356e-11 0 1.83772e-11 2.92609e-11 0 0 0 0)
(-1.29833e-11 -2.88062e-11 0 1.54499e-11 1.95126e-11 0 0 0 0)
(-1.45012e-11 -3.65192e-11 0 1.40946e-11 1.26626e-11 0 0 0 0)
(-5.77338e-12 -3.01544e-11 0 1.17636e-11 6.67658e-12 0 0 0 0)
(-2.35814e-12 -1.30326e-11 0 8.97177e-12 2.46955e-12 0 0 0 0)
(-1.73472e-12 9.39216e-12 0 5.80048e-12 7.00171e-13 0 0 0 0)
(-1.87025e-12 6.58345e-12 0 3.65918e-12 8.3375e-13 0 0 0 0)
(2.43945e-12 -1.1511e-11 0 2.76472e-12 -1.02042e-12 0 0 0 0)
(4.22839e-12 4.32304e-11 0 5.96311e-13 -3.84491e-12 0 0 0 0)
(-7.33424e-06 -2.34064e-05 0 -9.00898e-08 2.25428e-06 0 0 0 0)
(8.32263e-06 2.89617e-05 0 1.39509e-08 -5.92453e-07 0 0 0 0)
(-1.64411e-06 -6.87088e-06 0 -6.5855e-09 1.41914e-07 0 0 0 0)
(7.52407e-07 1.62779e-06 0 2.46466e-10 -3.71016e-08 0 0 0 0)
(-1.404e-07 -3.85975e-07 0 -1.53442e-10 9.55237e-09 0 0 0 0)
(5.52949e-08 9.14409e-08 0 -8.50286e-11 -2.24874e-09 0 0 0 0)
(-1.41444e-08 -2.16559e-08 0 1.31731e-11 7.52652e-10 0 0 0 0)
(3.80891e-09 5.13147e-09 0 -1.99764e-11 -7.36961e-11 0 0 0 0)
(-1.30871e-09 -1.22263e-09 0 7.45389e-12 1.10428e-10 0 0 0 0)
(2.59504e-10 2.67366e-10 0 4.25549e-12 3.95062e-11 0 0 0 0)
(-1.32679e-10 -9.7297e-11 0 1.01102e-11 4.1167e-11 0 0 0 0)
(-2.73761e-12 -1.87227e-11 0 1.06794e-11 2.73199e-11 0 0 0 0)
(-2.80537e-11 -4.35456e-11 0 1.1601e-11 2.05779e-11 0 0 0 0)
(-1.15196e-11 -4.11468e-11 0 1.11402e-11 1.38299e-11 0 0 0 0)
(-8.53809e-12 -3.53948e-11 0 9.92045e-12 8.74666e-12 0 0 0 0)
(-5.85469e-12 -1.60183e-11 0 7.77915e-12 4.92775e-12 0 0 0 0)
(-4.8518e-12 8.32034e-12 0 5.25838e-12 2.94157e-12 0 0 0 0)
(-1.24683e-12 5.54057e-12 0 3.52366e-12 2.38518e-12 0 0 0 0)
(1.68051e-12 -1.39168e-11 0 2.60209e-12 3.61366e-13 0 0 0 0)
(1.78893e-12 4.49137e-11 0 6.23416e-13 -2.32669e-12 0 0 0 0)
(7.23315e-06 2.42306e-05 0 5.02209e-07 -2.19758e-06 0 0 0 0)
(-8.20881e-06 -3.00031e-05 0 -1.0079e-07 5.647e-07 0 0 0 0)
(1.62461e-06 7.13961e-06 0 4.42536e-08 -1.34412e-07 0 0 0 0)
(-7.43428e-07 -1.69211e-06 0 -8.70872e-09 3.47938e-08 0 0 0 0)
(1.3902e-07 4.0256e-07 0 3.04146e-09 -8.43901e-09 0 0 0 0)
(-5.51993e-08 -9.56396e-08 0 -8.71671e-10 2.26968e-09 0 0 0 0)
(1.38681e-08 2.26916e-08 0 1.66696e-10 -4.64864e-10 0 0 0 0)
(-3.98442e-09 -5.42698e-09 0 -9.11272e-11 2.14432e-10 0 0 0 0)
(1.17837e-09 1.2583e-09 0 1.76183e-12 2.22847e-11 0 0 0 0)
(-3.6085e-10 -3.3895e-10 0 -9.6494e-12 5.45771e-11 0 0 0 0)
(5.87909e-11 3.25511e-11 0 1.76183e-12 3.18371e-11 0 0 0 0)
(-5.32343e-11 -6.03246e-11 0 4.22839e-12 2.64721e-11 0 0 0 0)
(-1.24412e-11 -4.22961e-11 0 6.966e-12 1.90747e-11 0 0 0 0)
(-1.61817e-11 -4.83504e-11 0 7.86047e-12 1.40376e-11 0 0 0 0)
(-9.1073e-12 -3.90566e-11 0 7.75205e-12 9.85202e-12 0 0 0 0)
(-7.02021e-12 -1.88377e-11 0 6.451e-12 6.76881e-12 0 0 0 0)
(-6.01732e-12 6.84959e-12 0 4.44523e-12 4.79675e-12 0 0 0 0)
(-4.47233e-12 4.00324e-12 0 3.11708e-12 3.54882e-12 0 0 0 0)
(-4.87891e-13 -1.62229e-11 0 2.43945e-12 1.62779e-12 0 0 0 0)
(9.75782e-13 4.51957e-11 0 5.14996e-13 -8.89721e-13 0 0 0 0)
(-6.93282e-06 -2.50393e-05 0 -8.13382e-07 2.11962e-06 0 0 0 0)
(7.86467e-06 3.10249e-05 0 1.62732e-07 -5.37683e-07 0 0 0 0)
(-1.55203e-06 -7.40079e-06 0 -7.29067e-08 1.2782e-07 0 0 0 0)
(7.11195e-07 1.75377e-06 0 1.40032e-08 -3.2333e-08 0 0 0 0)
(-1.32563e-07 -4.18499e-07 0 -5.49043e-09 8.02222e-09 0 0 0 0)
(5.24201e-08 9.94151e-08 0 1.30112e-09 -1.88158e-09 0 0 0 0)
(-1.33638e-08 -2.37112e-08 0 -4.40484e-10 5.73359e-10 0 0 0 0)
(3.64403e-09 5.61862e-09 0 8.29686e-11 -6.34238e-11 0 0 0 0)
(-1.22724e-09 -1.38248e-09 0 -5.5484e-11 7.89034e-11 0 0 0 0)
(2.59477e-10 2.76918e-10 0 -5.69206e-12 2.88595e-11 0 0 0 0)
(-1.18829e-10 -1.25402e-10 0 -9.59519e-12 3.04007e-11 0 0 0 0)
(2.52077e-12 -3.14851e-11 0 -8.13152e-13 2.11979e-11 0 0 0 0)
(-2.44217e-11 -5.59801e-11 0 2.11419e-12 1.68708e-11 0 0 0 0)
(-1.07607e-11 -5.03695e-11 0 4.52654e-12 1.29298e-11 0 0 0 0)
(-9.94755e-12 -4.26635e-11 0 5.31259e-12 1.01207e-11 0 0 0 0)
(-9.16151e-12 -2.10736e-11 0 4.79759e-12 7.84947e-12 0 0 0 0)
(-8.18573e-12 5.10035e-12 0 3.44234e-12 6.01731e-12 0 0 0 0)
(-3.25261e-12 2.3716e-12 0 2.62919e-12 4.46658e-12 0 0 0 0)
(-9.21572e-13 -1.83553e-11 0 2.27682e-12 2.65721e-12 0 0 0 0)
(-1.16552e-12 4.41756e-11 0 4.60786e-13 4.32132e-13 0 0 0 0)
(6.5825e-06 2.58125e-05 0 1.06097e-06 -2.0197e-06 0 0 0 0)
(-7.46833e-06 -3.19949e-05 0 -2.11768e-07 5.07774e-07 0 0 0 0)
(1.47588e-06 7.64496e-06 0 9.46677e-08 -1.20519e-07 0 0 0 0)
(-6.76012e-07 -1.81191e-06 0 -1.85078e-08 3.03621e-08 0 0 0 0)
(1.26318e-07 4.33011e-07 0 6.91295e-09 -7.31407e-09 0 0 0 0)
(-5.01494e-08 -1.03088e-07 0 -1.89256e-09 1.87866e-09 0 0 0 0)
(1.26498e-08 2.45097e-08 0 4.39427e-10 -4.03534e-10 0 0 0 0)
(-3.59942e-09 -5.92143e-09 0 -2.07896e-10 1.56082e-10 0 0 0 0)
(1.08968e-09 1.35059e-09 0 6.69495e-12 6.8605e-12 0 0 0 0)
(-3.14907e-10 -3.87453e-10 0 -3.4586e-11 3.43168e-11 0 0 0 0)
(6.36698e-11 2.48896e-11 0 -1.01373e-11 1.92098e-11 0 0 0 0)
(-4.15249e-11 -7.38546e-11 0 -7.69784e-12 1.68051e-11 0 0 0 0)
(-7.12863e-12 -5.05643e-11 0 -1.5992e-12 1.29561e-11 0 0 0 0)
(-1.29833e-11 -5.51004e-11 0 1.21973e-12 1.09734e-11 0 0 0 0)
(-8.83625e-12 -4.41369e-11 0 2.98156e-12 9.48167e-12 0 0 0 0)
(-8.91756e-12 -2.29411e-11 0 3.2255e-12 8.26154e-12 0 0 0 0)
(-8.13152e-12 3.46669e-12 0 2.60209e-12 6.75887e-12 0 0 0 0)
(-5.69206e-12 6.43145e-13 0 2.1413e-12 4.9229e-12 0 0 0 0)
(-2.62919e-12 -2.02573e-11 0 1.97867e-12 3.51801e-12 0 0 0 0)
(-1.76183e-12 4.21064e-11 0 4.87891e-13 1.63403e-12 0 0 0 0)
(-6.08362e-06 -2.65512e-05 0 -1.26993e-06 1.8902e-06 0 0 0 0)
(6.89837e-06 3.29241e-05 0 2.52575e-07 -4.71848e-07 0 0 0 0)
(-1.35877e-06 -7.8782e-06 0 -1.13641e-07 1.11972e-07 0 0 0 0)
(6.23441e-07 1.86697e-06 0 2.18752e-08 -2.7863e-08 0 0 0 0)
(-1.15948e-07 -4.46983e-07 0 -8.55755e-09 6.81589e-09 0 0 0 0)
(4.59466e-08 1.06326e-07 0 2.09072e-09 -1.61094e-09 0 0 0 0)
(-1.16791e-08 -2.54338e-08 0 -6.80527e-10 4.5047e-10 0 0 0 0)
(3.21124e-09 6.02901e-09 0 1.40757e-10 -7.06925e-11 0 0 0 0)
(-1.0539e-09 -1.50425e-09 0 -8.96364e-11 4.77151e-11 0 0 0 0)
(2.42644e-10 2.89268e-10 0 -1.39049e-11 1.05496e-11 0 0 0 0)
(-9.19403e-11 -1.42914e-10 0 -2.33375e-11 1.42166e-11 0 0 0 0)
(1.1086e-11 -3.77387e-11 0 -1.04354e-11 9.57186e-12 0 0 0 0)
(-1.55041e-11 -6.18118e-11 0 -6.23416e-12 8.59603e-12 0 0 0 0)
(-6.17995e-12 -5.38439e-11 0 -1.76183e-12 8.03973e-12 0 0 0 0)
(-7.94178e-12 -4.53754e-11 0 5.42101e-13 8.09277e-12 0 0 0 0)
(-9.56808e-12 -2.37964e-11 0 1.51788e-12 7.93271e-12 0 0 0 0)
(-9.24282e-12 1.76171e-12 0 1.38236e-12 6.90592e-12 0 0 0 0)
(-3.90313e-12 -8.69257e-13 0 1.51788e-12 5.13086e-12 0 0 0 0)
(-2.57498e-12 -2.16442e-11 0 1.87025e-12 4.06435e-12 0 0 0 0)
(-3.63208e-12 3.90236e-11 0 4.33681e-13 2.7384e-12 0 0 0 0)
(5.56515e-06 2.72309e-05 0 1.43221e-06 -1.73774e-06 0 0 0 0)
(-6.31204e-06 -3.37731e-05 0 -2.83755e-07 4.31412e-07 0 0 0 0)
(1.24518e-06 8.08895e-06 0 1.27627e-07 -1.02316e-07 0 0 0 0)
(-5.70928e-07 -1.91706e-06 0 -2.47036e-08 2.54152e-08 0 0 0 0)
(1.06533e-07 4.59263e-07 0 9.36233e-09 -6.10917e-09 0 0 0 0)
(-4.22723e-08 -1.09454e-07 0 -2.5225e-09 1.52813e-09 0 0 0 0)
(1.06999e-08 2.605e-08 0 6.07451e-10 -3.47897e-10 0 0 0 0)
(-3.00858e-09 -6.32419e-09 0 -2.76119e-10 1.06337e-10 0 0 0 0)
(9.34989e-10 1.43183e-09 0 9.08019e-12 -1.22024e-11 0 0 0 0)
(-2.48662e-10 -4.20951e-10 0 -5.03612e-11 1.15728e-11 0 0 0 0)
(6.71934e-11 2.39118e-11 0 -1.90549e-11 2.33906e-12 0 0 0 0)
(-2.44217e-11 -7.94751e-11 0 -1.68322e-11 3.28687e-12 0 0 0 0)
(1.54499e-12 -5.20964e-11 0 -8.83625e-12 3.12712e-12 0 0 0 0)
(-6.23416e-12 -5.56037e-11 0 -4.71628e-12 4.52521e-12 0 0 0 0)
(-5.55654e-12 -4.42439e-11 0 -1.5992e-12 6.01744e-12 0 0 0 0)
(-8.07731e-12 -2.4128e-11 0 -1.6263e-13 7.0761e-12 0 0 0 0)
(-8.0502e-12 6.64845e-13 0 5.42101e-13 6.61888e-12 0 0 0 0)
(-5.20417e-12 -2.19842e-12 0 1.0571e-12 4.78991e-12 0 0 0 0)
(-3.7405e-12 -2.26498e-11 0 1.54499e-12 4.33951e-12 0 0 0 0)
(-4.06576e-12 3.53036e-11 0 4.33681e-13 3.76367e-12 0 0 0 0)
(-4.93517e-06 -2.78575e-05 0 -1.57825e-06 1.56167e-06 0 0 0 0)
(5.59379e-06 3.45595e-05 0 3.12697e-07 -3.8529e-07 0 0 0 0)
(-1.09972e-06 -8.2842e-06 0 -1.40905e-07 9.1344e-08 0 0 0 0)
(5.05176e-07 1.96318e-06 0 2.70897e-08 -2.24715e-08 0 0 0 0)
(-9.37667e-08 -4.7087e-07 0 -1.05705e-08 5.45527e-09 0 0 0 0)
(3.71917e-08 1.12087e-07 0 2.60661e-09 -1.29618e-09 0 0 0 0)
(-9.43278e-09 -2.68555e-08 0 -8.35134e-10 3.34043e-10 0 0 0 0)
(2.61293e-09 6.36471e-09 0 1.75858e-10 -7.56694e-11 0 0 0 0)
(-8.28114e-10 -1.59901e-09 0 -1.12052e-10 1.65969e-11 0 0 0 0)
(2.14482e-10 3.03809e-10 0 -2.0112e-11 -1.01195e-11 0 0 0 0)
(-5.83843e-11 -1.512e-10 0 -3.29869e-11 -4.64251e-12 0 0 0 0)
(2.12504e-11 -3.69507e-11 0 -1.75912e-11 -4.97638e-12 0 0 0 0)
(-3.33392e-12 -6.05735e-11 0 -1.25767e-11 -2.55932e-12 0 0 0 0)
(1.0571e-12 -5.09536e-11 0 -6.93889e-12 3.96712e-13 0 0 0 0)
(-3.36103e-12 -4.28245e-11 0 -3.65918e-12 3.50755e-12 0 0 0 0)
(-7.45389e-12 -2.31949e-11 0 -1.5992e-12 5.70054e-12 0 0 0 0)
(-8.10441e-12 -5.24481e-13 0 -8.67362e-13 5.74543e-12 0 0 0 0)
(-2.87314e-12 -3.14862e-12 0 2.98156e-13 4.07119e-12 0 0 0 0)
(-3.1984e-12 -2.26704e-11 0 1.49078e-12 4.23758e-12 0 0 0 0)
(-5.58364e-12 3.09204e-11 0 4.87891e-13 4.71592e-12 0 0 0 0)
(4.29959e-06 2.84073e-05 0 1.66542e-06 -1.36658e-06 0 0 0 0)
(-4.8747e-06 -3.52434e-05 0 -3.28253e-07 3.34592e-07 0 0 0 0)
(9.59575e-07 8.45177e-06 0 1.48225e-07 -7.91892e-08 0 0 0 0)
(-4.40593e-07 -2.00295e-06 0 -2.84904e-08 1.94233e-08 0 0 0 0)
(8.205e-08 4.80439e-07 0 1.08605e-08 -4.61926e-09 0 0 0 0)
(-3.2537e-08 -1.14575e-07 0 -2.91607e-09 1.1339e-09 0 0 0 0)
(8.26916e-09 2.72705e-08 0 7.00937e-10 -2.72978e-10 0 0 0 0)
(-2.28547e-09 -6.64163e-09 0 -3.20897e-10 5.46318e-11 0 0 0 0)
(7.39074e-10 1.49738e-09 0 7.72494e-12 -3.18257e-11 0 0 0 0)
(-1.69596e-10 -4.42191e-10 0 -6.10677e-11 -1.34748e-11 0 0 0 0)
(6.966e-11 2.9055e-11 0 -2.51264e-11 -1.67023e-11 0 0 0 0)
(-4.01155e-12 -7.73919e-11 0 -2.2714e-11 -1.25064e-11 0 0 0 0)
(1.21702e-11 -4.67233e-11 0 -1.35525e-11 -8.83621e-12 0 0 0 0)
(2.71051e-12 -4.95368e-11 0 -8.78204e-12 -4.02695e-12 0 0 0 0)
(-2.43945e-13 -3.89401e-11 0 -4.96022e-12 5.43858e-13 0 0 0 0)
(-5.25838e-12 -2.18901e-11 0 -2.73761e-12 3.86219e-12 0 0 0 0)
(-6.15285e-12 -9.64507e-13 0 -1.32815e-12 4.48422e-12 0 0 0 0)
(-2.84603e-12 -3.70627e-12 0 -1.35525e-13 2.83681e-12 0 0 0 0)
(-3.57787e-12 -2.2005e-11 0 9.75782e-13 3.77719e-12 0 0 0 0)
(-6.01732e-12 2.63501e-11 0 4.60786e-13 5.59973e-12 0 0 0 0)
(-3.598e-06 -2.88895e-05 0 -1.73163e-06 1.15736e-06 0 0 0 0)
(4.07659e-06 3.58469e-05 0 3.40402e-07 -2.82748e-07 0 0 0 0)
(-7.99956e-07 -8.59937e-06 0 -1.54124e-07 6.70624e-08 0 0 0 0)
(3.67812e-07 2.03775e-06 0 2.93287e-08 -1.62402e-08 0 0 0 0)
(-6.81924e-08 -4.89159e-07 0 -1.15187e-08 3.95887e-09 0 0 0 0)
(2.70322e-08 1.16433e-07 0 2.8083e-09 -9.36995e-10 0 0 0 0)
(-6.8376e-09 -2.79348e-08 0 -9.15311e-10 2.08878e-10 0 0 0 0)
(1.91969e-09 6.60586e-09 0 1.79923e-10 -8.51551e-11 0 0 0 0)
(-5.68339e-10 -1.66712e-09 0 -1.25578e-10 -2.051e-11 0 0 0 0)
(1.81685e-10 3.18933e-10 0 -2.44759e-11 -3.56094e-11 0 0 0 0)
(-1.99764e-11 -1.50231e-10 0 -3.71339e-11 -2.72209e-11 0 0 0 0)
(3.27971e-11 -2.90846e-11 0 -2.03288e-11 -2.24379e-11 0 0 0 0)
(1.0571e-11 -5.2094e-11 0 -1.50433e-11 -1.60163e-11 0 0 0 0)
(9.70361e-12 -4.15736e-11 0 -9.18861e-12 -9.34229e-12 0 0 0 0)
(2.6563e-12 -3.49353e-11 0 -5.50233e-12 -3.08751e-12 0 0 0 0)
(-3.82181e-12 -1.92546e-11 0 -3.06287e-12 1.58025e-12 0 0 0 0)
(-5.52943e-12 -1.54986e-12 0 -1.73472e-12 3.04554e-12 0 0 0 0)
(-5.42101e-13 -3.85565e-12 0 -2.98156e-13 1.6963e-12 0 0 0 0)
(-2.62919e-12 -1.99075e-11 0 1.00289e-12 3.32628e-12 0 0 0 0)
(-7.02021e-12 2.15435e-11 0 3.52366e-13 6.26896e-12 0 0 0 0)
(2.90836e-06 2.92819e-05 0 1.80792e-06 -9.36475e-07 0 0 0 0)
(-3.29719e-06 -3.63337e-05 0 -3.56212e-07 2.27082e-07 0 0 0 0)
(6.48502e-07 8.71827e-06 0 1.6092e-07 -5.33596e-08 0 0 0 0)
(-2.97988e-07 -2.06606e-06 0 -3.09863e-08 1.32556e-08 0 0 0 0)
(5.55296e-08 4.95742e-07 0 1.17129e-08 -3.10165e-09 0 0 0 0)
(-2.19336e-08 -1.18325e-07 0 -3.2078e-09 7.44898e-10 0 0 0 0)
(5.64081e-09 2.81223e-08 0 7.34845e-10 -2.29576e-10 0 0 0 0)
(-1.49571e-09 -6.87102e-09 0 -3.52718e-10 -7.2975e-12 0 0 0 0)
(5.34593e-10 1.54692e-09 0 7.88757e-12 -6.35618e-11 0 0 0 0)
(-8.11525e-11 -4.48902e-10 0 -6.27482e-11 -4.31649e-11 0 0 0 0)
(7.378e-11 4.22264e-11 0 -2.34459e-11 -3.87224e-11 0 0 0 0)
(1.81062e-11 -6.61873e-11 0 -2.11419e-11 -2.90784e-11 0 0 0 0)
(2.33646e-11 -3.36277e-11 0 -1.2116e-11 -2.10662e-11 0 0 0 0)
(1.22244e-11 -3.6608e-11 0 -7.69784e-12 -1.25534e-11 0 0 0 0)
(5.9089e-12 -2.80176e-11 0 -4.01155e-12 -4.96805e-12 0 0 0 0)
(-1.54499e-12 -1.57571e-11 0 -1.84314e-12 7.70293e-13 0 0 0 0)
(-3.36103e-12 -8.48451e-13 0 -1.89735e-13 2.53848e-12 0 0 0 0)
(-8.13152e-14 -3.42553e-12 0 6.23416e-13 1.00325e-12 0 0 0 0)
(-2.92735e-12 -1.74324e-11 0 7.31836e-13 3.09695e-12 0 0 0 0)
(-7.37257e-12 1.67549e-11 0 1.0842e-13 6.6836e-12 0 0 0 0)
(-2.1463e-06 -2.95989e-05 0 -1.74652e-06 7.04669e-07 0 0 0 0)
(2.4296e-06 3.673e-05 0 3.3928e-07 -1.6784e-07 0 0 0 0)
(-4.7473e-07 -8.81319e-06 0 -1.569e-07 3.94052e-08 0 0 0 0)
(2.18605e-07 2.08801e-06 0 2.927e-08 -8.90023e-09 0 0 0 0)
(-4.04139e-08 -5.0167e-07 0 -1.20241e-08 2.0247e-09 0 0 0 0)
(1.60542e-08 1.19305e-07 0 2.82779e-09 -5.15711e-10 0 0 0 0)
(-3.98252e-09 -2.8687e-08 0 -9.83615e-10 -1.46417e-12 0 0 0 0)
(1.19276e-09 6.77187e-09 0 1.83122e-10 -1.03165e-10 0 0 0 0)
(-2.78315e-10 -1.70299e-09 0 -1.27611e-10 -7.01754e-11 0 0 0 0)
(1.50298e-10 3.43772e-10 0 -1.73201e-11 -6.09112e-11 0 0 0 0)
(2.15485e-11 -1.36145e-10 0 -3.20653e-11 -4.8181e-11 0 0 0 0)
(4.41812e-11 -1.14284e-11 0 -1.59378e-11 -3.67697e-11 0 0 0 0)
(2.3988e-11 -3.5569e-11 0 -1.2387e-11 -2.6576e-11 0 0 0 0)
(1.7808e-11 -2.54754e-11 0 -7.45389e-12 -1.66442e-11 0 0 0 0)
(8.51099e-12 -2.16116e-11 0 -4.55365e-12 -7.87758e-12 0 0 0 0)
(2.71051e-14 -1.1748e-11 0 -2.76472e-12 -1.48169e-12 0 0 0 0)
(-3.03577e-12 -1.3169e-12 0 -2.08709e-12 5.83816e-13 0 0 0 0)
(3.52366e-13 -3.29718e-12 0 -5.96311e-13 -2.57852e-14 0 0 0 0)
(-3.14419e-12 -1.42272e-11 0 8.94467e-13 3.48774e-12 0 0 0 0)
(-7.86047e-12 1.17629e-11 0 2.98156e-13 7.18726e-12 0 0 0 0)
(1.50112e-06 2.98187e-05 0 1.78859e-06 -5.13583e-07 0 0 0 0)
(-1.70757e-06 -3.6999e-05 0 -3.20393e-07 1.70164e-07 0 0 0 0)
(3.38492e-07 8.87721e-06 0 1.45279e-07 -4.17131e-08 0 0 0 0)
(-1.53112e-07 -2.10344e-06 0 -2.49908e-08 1.20312e-08 0 0 0 0)
(2.90874e-08 5.04126e-07 0 9.36244e-09 -3.62031e-09 0 0 0 0)
(-1.08931e-08 -1.20351e-07 0 -2.56883e-09 6.73948e-10 0 0 0 0)
(2.99614e-09 2.85349e-08 0 4.92011e-10 -4.10263e-10 0 0 0 0)
(-6.39706e-10 -6.93973e-09 0 -2.62973e-10 -5.88587e-11 0 0 0 0)
(3.34124e-10 1.58918e-09 0 1.54499e-12 -1.17102e-10 0 0 0 0)
(1.4447e-11 -4.26907e-10 0 -4.42897e-11 -7.33342e-11 0 0 0 0)
(7.51623e-11 6.6368e-11 0 -1.85128e-11 -6.22808e-11 0 0 0 0)
(3.78116e-11 -4.45823e-11 0 -1.79978e-11 -4.60269e-11 0 0 0 0)
(3.18213e-11 -1.35023e-11 0 -1.29562e-11 -3.4028e-11 0 0 0 0)
(2.00306e-11 -1.79096e-11 0 -1.05439e-11 -2.22737e-11 0 0 0 0)
(1.05981e-11 -1.2855e-11 0 -8.48388e-12 -1.22686e-11 0 0 0 0)
(9.21572e-13 -7.29566e-12 0 -7.58942e-12 -4.98879e-12 0 0 0 0)
(-1.19262e-12 6.07453e-13 0 -6.39679e-12 -2.13047e-12 0 0 0 0)
(2.92735e-12 -5.21608e-13 0 -3.08998e-12 -2.23422e-12 0 0 0 0)
(-2.03288e-12 -1.02193e-11 0 8.13152e-13 2.12016e-12 0 0 0 0)
(-8.5923e-12 6.07991e-12 0 8.94467e-13 8.17888e-12 0 0 0 0)
(-6.78097e-07 -2.99423e-05 0 -9.95079e-07 2.27736e-07 0 0 0 0)
(7.86283e-07 3.72019e-05 0 1.72057e-07 -1.04113e-07 0 0 0 0)
(-1.79328e-07 -8.97133e-06 0 -7.37959e-08 2.48652e-08 0 0 0 0)
(8.2688e-08 2.1261e-06 0 1.28922e-08 -1.0002e-08 0 0 0 0)
(-1.7992e-08 -5.13027e-07 0 -3.37233e-09 2.2016e-09 0 0 0 0)
(7.18371e-09 1.22515e-07 0 1.79682e-09 -1.10108e-09 0 0 0 0)
(-1.67666e-09 -2.94198e-08 0 3.37051e-10 3.755e-11 0 0 0 0)
(7.02346e-10 7.06503e-09 0 4.77347e-10 -2.16116e-10 0 0 0 0)
(-5.96582e-11 -1.71746e-09 0 2.74493e-10 -8.77514e-11 0 0 0 0)
(1.30213e-10 3.98593e-10 0 2.02827e-10 -8.7834e-11 0 0 0 0)
(4.79217e-11 -1.08838e-10 0 1.29806e-10 -5.94371e-11 0 0 0 0)
(4.96836e-11 1.68243e-11 0 7.97702e-11 -4.53645e-11 0 0 0 0)
(3.14419e-11 -1.18159e-11 0 4.2311e-11 -3.16791e-11 0 0 0 0)
(2.23075e-11 -3.71596e-12 0 1.6507e-11 -2.00463e-11 0 0 0 0)
(1.14654e-11 -4.32666e-12 0 0 -1.00536e-11 0 0 0 0)
(2.08709e-12 -1.60992e-12 0 -5.55654e-12 -2.86463e-12 0 0 0 0)
(1.46367e-12 1.43767e-12 0 -3.06287e-12 -1.14801e-12 0 0 0 0)
(7.56231e-12 9.53455e-13 0 -5.80048e-12 -4.90975e-12 0 0 0 0)
(8.13152e-13 -3.81406e-12 0 -1.35254e-11 -1.57986e-12 0 0 0 0)
(-9.54098e-12 1.46389e-12 0 -4.63496e-12 9.12365e-12 0 0 0 0)
)
;

boundaryField
{
    movingWall
    {
        type            extrapolatedCalculated;
        value           nonuniform List<tensor> 
20
(
(-6.78097e-07 -2.99423e-05 0 3.50825e-06 0.000157832 0 0 0 0)
(7.86283e-07 3.72019e-05 0 -7.95862e-07 -3.80625e-05 0 0 0 0)
(-1.79328e-07 -8.97133e-06 0 3.63116e-07 9.02436e-06 0 0 0 0)
(8.2688e-08 2.1261e-06 0 -7.85513e-08 -2.17716e-06 0 0 0 0)
(-1.7992e-08 -5.13027e-07 0 3.23641e-08 5.19962e-07 0 0 0 0)
(7.18371e-09 1.22515e-07 0 -6.58336e-09 -1.25049e-07 0 0 0 0)
(-1.67666e-09 -2.94198e-08 0 3.6291e-09 2.99008e-08 0 0 0 0)
(7.02346e-10 7.06503e-09 0 1.23368e-10 -7.36985e-09 0 0 0 0)
(-5.96582e-11 -1.71746e-09 0 8.197e-10 1.64062e-09 0 0 0 0)
(1.30213e-10 3.98593e-10 0 3.61844e-10 -5.00009e-10 0 0 0 0)
(4.79217e-11 -1.08838e-10 0 2.98872e-10 4.62464e-11 0 0 0 0)
(4.96836e-11 1.68243e-11 0 1.70264e-10 -6.4659e-11 0 0 0 0)
(3.14419e-11 -1.18159e-11 0 1.00098e-10 -2.10509e-11 0 0 0 0)
(2.23075e-11 -3.71596e-12 0 4.45866e-11 -1.73954e-11 0 0 0 0)
(1.14654e-11 -4.32666e-12 0 1.09246e-11 -6.18708e-12 0 0 0 0)
(2.08709e-12 -1.60992e-12 0 -1.24345e-12 -8.87832e-14 0 0 0 0)
(1.46367e-12 1.43767e-12 0 2.39808e-12 2.52598e-13 0 0 0 0)
(7.56231e-12 9.53455e-13 0 -7.10543e-12 -5.83947e-12 0 0 0 0)
(8.13152e-13 -3.81406e-12 0 -2.77556e-11 -3.56122e-12 0 0 0 0)
(-9.54098e-12 1.46389e-12 0 -1.04805e-11 9.41676e-12 0 0 0 0)
)
;
    }
    fixedWalls
    {
        type            extrapolatedCalculated;
        value           nonuniform List<tensor> 
60
(
(3.2041e-06 9.01471e-05 0 -1.86287e-06 -5.15056e-07 0 0 0 0)
(-1.06556e-05 -9.22073e-05 0 3.65507e-06 1.55191e-06 0 0 0 0)
(1.78244e-05 9.63547e-05 0 -3.57083e-06 -2.4974e-06 0 0 0 0)
(-2.49389e-05 -0.000102197 0 3.28845e-06 3.00815e-06 0 0 0 0)
(3.09782e-05 0.000108387 0 -2.4173e-06 -2.81152e-06 0 0 0 0)
(-3.46081e-05 -0.000113443 0 1.3574e-06 2.44559e-06 0 0 0 0)
(3.64078e-05 0.00011817 0 -4.82365e-07 -2.32555e-06 0 0 0 0)
(-3.65375e-05 -0.000122745 0 -9.00898e-08 2.25428e-06 0 0 0 0)
(3.60474e-05 0.000127187 0 5.02209e-07 -2.19758e-06 0 0 0 0)
(-3.45287e-05 -0.000131535 0 -8.13382e-07 2.11962e-06 0 0 0 0)
(3.27939e-05 0.000135665 0 1.06097e-06 -2.0197e-06 0 0 0 0)
(-3.02848e-05 -0.000139614 0 -1.26993e-06 1.8902e-06 0 0 0 0)
(2.77142e-05 0.000143226 0 1.43221e-06 -1.73774e-06 0 0 0 0)
(-2.4556e-05 -0.000146565 0 -1.57825e-06 1.56167e-06 0 0 0 0)
(2.14012e-05 0.000149473 0 1.66542e-06 -1.36658e-06 0 0 0 0)
(-1.78943e-05 -0.000152032 0 -1.73163e-06 1.15736e-06 0 0 0 0)
(1.44746e-05 0.000154102 0 1.80792e-06 -9.36475e-07 0 0 0 0)
(-1.06626e-05 -0.000155778 0 -1.74652e-06 7.04669e-07 0 0 0 0)
(7.48856e-06 0.000156921 0 1.78859e-06 -5.13583e-07 0 0 0 0)
(-3.50825e-06 -0.000157832 0 -9.95079e-07 2.27736e-07 0 0 0 0)
(7.4607e-12 1.03354e-11 0 -3.63208e-12 -1.02351e-11 0 0 0 0)
(7.01661e-12 3.06048e-11 0 2.1684e-13 -9.8105e-12 0 0 0 0)
(6.75016e-12 4.95774e-11 0 2.98156e-13 -9.06053e-12 0 0 0 0)
(5.68434e-12 6.68469e-11 0 4.60786e-13 -8.0404e-12 0 0 0 0)
(4.88498e-12 8.17391e-11 0 6.23416e-13 -6.76775e-12 0 0 0 0)
(3.37508e-12 9.39179e-11 0 5.14996e-13 -5.35068e-12 0 0 0 0)
(2.66454e-12 1.03142e-10 0 5.96311e-13 -3.84491e-12 0 0 0 0)
(9.76996e-13 1.09298e-10 0 6.23416e-13 -2.32669e-12 0 0 0 0)
(1.77636e-13 1.12449e-10 0 5.14996e-13 -8.89721e-13 0 0 0 0)
(-1.11022e-12 1.12856e-10 0 4.60786e-13 4.32132e-13 0 0 0 0)
(-1.68754e-12 1.1072e-10 0 4.87891e-13 1.63403e-12 0 0 0 0)
(-2.9754e-12 1.0632e-10 0 4.33681e-13 2.7384e-12 0 0 0 0)
(-3.4639e-12 9.97664e-11 0 4.33681e-13 3.76367e-12 0 0 0 0)
(-4.66294e-12 9.12656e-11 0 4.87891e-13 4.71592e-12 0 0 0 0)
(-5.41789e-12 8.09027e-11 0 4.60786e-13 5.59973e-12 0 0 0 0)
(-6.43929e-12 6.88667e-11 0 3.52366e-13 6.26896e-12 0 0 0 0)
(-6.83897e-12 5.58269e-11 0 1.0842e-13 6.6836e-12 0 0 0 0)
(-6.92779e-12 4.21323e-11 0 2.98156e-13 7.18726e-12 0 0 0 0)
(-8.03801e-12 2.70779e-11 0 8.94467e-13 8.17888e-12 0 0 0 0)
(-1.04805e-11 9.41676e-12 0 -4.63496e-12 9.12365e-12 0 0 0 0)
(6.65966e-07 1.74077e-05 0 3.2041e-06 9.01471e-05 0 0 0 0)
(-7.40835e-07 -2.13221e-05 0 -5.40234e-07 -2.05165e-05 0 0 0 0)
(1.25448e-07 4.85217e-06 0 2.40755e-07 4.85852e-06 0 0 0 0)
(-5.69075e-08 -1.15046e-06 0 -3.844e-08 -1.10779e-06 0 0 0 0)
(8.58086e-09 2.62014e-07 0 1.31251e-08 2.56676e-07 0 0 0 0)
(-3.21886e-09 -6.08178e-08 0 -4.11644e-09 -5.97323e-08 0 0 0 0)
(8.80182e-10 1.41348e-08 0 2.49578e-10 1.34051e-08 0 0 0 0)
(-1.1235e-10 -3.18416e-09 0 -5.95524e-10 -3.19323e-09 0 0 0 0)