/*--------------------------------*- C++ -*----------------------------------*\
| =========                 |                                                 |
| \\      /  F ield         | OpenFOAM: The Open Source CFD Toolbox           |
|  \\    /   O peration     | Version:  2506                                  |
|   \\  /    A nd           | Website:  www.openfoam.com                      |
|    \\/     M anipulation  |                                                 |
\*---------------------------------------------------------------------------*/
FoamFile
{
    version     2.0;
    format      ascii;
    arch        "LSB;label=32;scalar=64";
    class       volVectorField;
    location    "3.5";
    object      gradPhi;
}
// * * * * * * * * * * * * * * * * * * * * * * * * * * * * * * * * * * * * * //

dimensions      [0 2 -1 0 0 0 0];

internalField   nonuniform List<vector> 
400
(
(-0.02 -2.18897e-11 0)
(-2.13856e-11 2.13856e-11 0)
(5.64293e-13 -5.64217e-13 0)
(-1.23284e-12 1.23291e-12 0)
(1.70312e-13 -1.70255e-13 0)
(-4.51442e-14 4.51908e-14 0)
(2.84633e-14 -2.84248e-14 0)
(2.43191e-16 -2.12005e-16 0)
(3.31038e-15 -3.28281e-15 0)
(6.10459e-16 -5.85642e-16 0)
(5.26087e-16 -5.02853e-16 0)
(2.05141e-16 -1.85948e-16 0)
(2.2003e-16 -1.9946e-16 0)
(3.57342e-16 -3.39826e-16 0)
(5.691e-16 -5.50553e-16 0)
(7.19647e-16 -7.05273e-16 0)
(6.45201e-16 -6.31277e-16 0)
(3.98701e-16 -3.85272e-16 0)
(4.1359e-16 -3.91439e-16 0)
(5.29396e-16 -5.22547e-16 0)
(-0.02 6.70403e-11 0)
(6.56384e-11 -6.56383e-11 0)
(-2.16162e-12 2.16168e-12 0)
(3.97671e-12 -3.97665e-12 0)
(-5.48682e-13 5.48731e-13 0)
(1.90819e-13 -1.90777e-13 0)
(-7.17662e-14 7.1801e-14 0)
(1.50166e-14 -1.49849e-14 0)
(-3.70577e-15 3.73309e-15 0)
(1.88928e-15 -1.86548e-15 0)
(-1.78671e-16 2.01204e-16 0)
(1.04225e-16 -8.33849e-17 0)
(2.31611e-17 -3.99892e-18 0)
(2.51463e-16 -2.32589e-16 0)
(4.74802e-16 -4.56249e-16 0)
(6.25349e-16 -6.11335e-16 0)
(5.97224e-16 -5.80902e-16 0)
(3.97047e-16 -3.80877e-16 0)
(4.10282e-16 -3.99182e-16 0)
(4.94654e-16 -4.82831e-16 0)
(-0.02 -1.12136e-10 0)
(-1.10192e-10 1.10192e-10 0)
(3.94539e-12 -3.94535e-12 0)
(-6.70902e-12 6.70905e-12 0)
(9.96193e-13 -9.96159e-13 0)
(-3.0366e-13 3.03692e-13 0)
(1.36645e-13 -1.36615e-13 0)
(-1.90169e-14 1.90436e-14 0)
(9.89308e-15 -9.87134e-15 0)
(-2.48816e-15 2.51075e-15 0)
(2.48154e-16 -2.28547e-16 0)
(-4.79765e-16 4.99743e-16 0)
(-1.12497e-16 1.29644e-16 0)
(6.61744e-17 -5.13767e-17 0)
(3.45761e-16 -3.27697e-16 0)
(5.40976e-16 -5.26921e-16 0)
(5.09543e-16 -4.98027e-16 0)
(2.79587e-16 -2.6816e-16 0)
(3.40798e-16 -3.16427e-16 0)
(4.74802e-16 -4.71212e-16 0)
(-0.02 1.55089e-10 0)
(1.51299e-10 -1.51299e-10 0)
(-4.76756e-12 4.76757e-12 0)
(9.56322e-12 -9.5632e-12 0)
(-1.28603e-12 1.28605e-12 0)
(4.47255e-13 -4.47231e-13 0)
(-1.80744e-13 1.80765e-13 0)
(2.72308e-14 -2.72078e-14 0)
(-1.47139e-14 1.47324e-14 0)
(2.18707e-15 -2.17078e-15 0)
(-1.67918e-15 1.69753e-15 0)
(-3.97047e-16 4.12493e-16 0)
(-4.7811e-16 4.91894e-16 0)
(-9.09899e-17 1.05401e-16 0)
(1.72054e-16 -1.56923e-16 0)
(3.57342e-16 -3.44676e-16 0)
(3.82157e-16 -3.69336e-16 0)
(2.71315e-16 -2.55515e-16 0)
(3.01094e-16 -2.96242e-16 0)
(3.98701e-16 -3.89136e-16 0)
(-0.02 -1.83127e-10 0)
(-1.76766e-10 1.76766e-10 0)
(4.36333e-12 -4.36333e-12 0)
(-1.18001e-11 1.18001e-11 0)
(1.48226e-12 -1.48225e-12 0)
(-5.88211e-13 5.88228e-13 0)
(2.1445e-13 -2.14435e-13 0)
(-4.03978e-14 4.04124e-14 0)
(1.50944e-14 -1.50793e-14 0)
(-6.04834e-15 6.06362e-15 0)
(-3.67268e-16 3.78282e-16 0)
(-1.36319e-15 1.37643e-15 0)
(-5.8399e-16 5.96684e-16 0)
(-3.45761e-16 3.5877e-16 0)
(-8.27181e-18 1.9878e-17 0)
(2.23339e-16 -2.14081e-16 0)
(2.56426e-16 -2.44763e-16 0)
(1.0257e-16 -9.85059e-17 0)
(1.98523e-16 -1.78333e-16 0)
(3.58996e-16 -3.57366e-16 0)
(-0.02 1.93722e-10 0)
(1.85751e-10 -1.85751e-10 0)
(-3.45222e-12 3.45221e-12 0)
(1.26479e-11 -1.26479e-11 0)
(-1.60988e-12 1.60988e-12 0)
(6.30899e-13 -6.3089e-13 0)
(-2.55736e-13 2.55745e-13 0)
(3.73985e-14 -3.73893e-14 0)
(-2.44912e-14 2.45006e-14 0)
(2.38559e-15 -2.37834e-15 0)
(-3.10524e-15 3.11578e-15 0)
(-8.70194e-16 8.77802e-16 0)
(-9.72764e-16 9.81859e-16 0)
(-4.64876e-16 4.73266e-16 0)
(-1.88597e-16 1.97892e-16 0)
(1.65436e-17 -1.10671e-17 0)
(9.76073e-17 -8.8893e-17 0)
(8.93355e-17 -7.85793e-17 0)
(1.50547e-16 -1.51952e-16 0)
(2.5808e-16 -2.49184e-16 0)
(-0.02 -1.98497e-10 0)
(-1.8949e-10 1.8949e-10 0)
(2.80957e-12 -2.80957e-12 0)
(-1.29293e-11 1.29293e-11 0)
(1.57352e-12 -1.57352e-12 0)
(-6.69092e-13 6.69092e-13 0)
(2.51074e-13 -2.51071e-13 0)
(-4.95713e-14 4.95754e-14 0)
(1.90715e-14 -1.90674e-14 0)
(-7.99884e-15 8.00434e-15 0)
(-5.32704e-16 5.37516e-16 0)
(-1.88928e-15 1.89333e-15 0)
(-8.76811e-16 8.84067e-16 0)
(-6.70016e-16 6.75373e-16 0)
(-3.29218e-16 3.34835e-16 0)
(-1.00916e-16 1.05433e-16 0)
(-2.15067e-17 2.53175e-17 0)
(-8.27181e-17 8.0965e-17 0)
(4.30134e-17 -2.43924e-17 0)
(2.0845e-16 -2.12609e-16 0)
(-0.02 1.9793e-10 0)
(1.88768e-10 -1.88768e-10 0)
(-2.49247e-12 2.49246e-12 0)
(1.28212e-11 -1.28212e-11 0)
(-1.55905e-12 1.55905e-12 0)
(6.46121e-13 -6.46126e-13 0)
(-2.63164e-13 2.63162e-13 0)
(4.01282e-14 -4.01295e-14 0)
(-2.62944e-14 2.62944e-14 0)
(2.83227e-15 -2.83217e-15 0)
(-3.37655e-15 3.37735e-15 0)
(-9.39677e-16 9.3997e-16 0)
(-1.14316e-15 1.14534e-15 0)
(-6.58436e-16 6.58697e-16 0)
(-4.41714e-16 4.43848e-16 0)
(-2.71315e-16 2.71577e-16 0)
(-1.58819e-16 1.62169e-16 0)
(-7.44463e-17 8.20463e-17 0)
(0 -7.62406e-18 0)
(1.00916e-16 -9.41486e-17 0)
(-0.02 -1.9402e-10 0)
(-1.84804e-10 1.84804e-10 0)
(2.27696e-12 -2.27698e-12 0)
(-1.25446e-11 1.25446e-11 0)
(1.4898e-12 -1.4898e-12 0)
(-6.43985e-13 6.43976e-13 0)
(2.46343e-13 -2.46351e-13 0)
(-4.73892e-14 4.73844e-14 0)
(1.95215e-14 -1.95269e-14 0)
(-7.59186e-15 7.5879e-15 0)
(-2.99439e-16 2.95683e-16 0)
(-1.77513e-15 1.7732e-15 0)
(-8.55305e-16 8.52382e-16 0)
(-7.5108e-16 7.47915e-16 0)
(-4.96308e-16 4.96375e-16 0)
(-3.226e-16 3.19625e-16 0)
(-2.29956e-16 2.29235e-16 0)
(-2.26647e-16 2.18537e-16 0)
(-9.76073e-17 1.10846e-16 0)
(5.45939e-17 -6.30153e-17 0)
(-0.02 1.86667e-10 0)
(1.77812e-10 -1.77812e-10 0)
(-2.11785e-12 2.11783e-12 0)
(1.20331e-11 -1.20331e-11 0)
(-1.43296e-12 1.43294e-12 0)
(6.07038e-13 -6.0705e-13 0)
(-2.45153e-13 2.45141e-13 0)
(3.8904e-14 -3.89128e-14 0)
(-2.39651e-14 2.39541e-14 0)
(3.25082e-15 -3.2578e-15 0)
(-2.80745e-15 2.80127e-15 0)
(-6.46855e-16 6.40264e-16 0)
(-9.64493e-16 9.57267e-16 0)
(-6.18731e-16 6.13575e-16 0)
(-5.14506e-16 5.11146e-16 0)
(-4.25171e-16 4.18134e-16 0)
(-3.20946e-16 3.17904e-16 0)
(-1.86943e-16 1.88603e-16 0)
(-1.22423e-16 1.07723e-16 0)
(-3.97047e-17 4.28867e-17 0)
(-0.02 -1.76707e-10 0)
(-1.68246e-10 1.68246e-10 0)
(1.96386e-12 -1.96388e-12 0)
(-1.1379e-11 1.1379e-11 0)
(1.34334e-12 -1.34336e-12 0)
(-5.81389e-13 5.81372e-13 0)
(2.26159e-13 -2.26176e-13 0)
(-4.19083e-14 4.18943e-14 0)
(1.85884e-14 -1.86004e-14 0)
(-6.2022e-15 6.19037e-15 0)
(2.34919e-16 -2.43695e-16 0)
(-1.26062e-15 1.25067e-15 0)
(-5.60828e-16 5.51229e-16 0)
(-5.98879e-16 5.89961e-16 0)
(-4.88037e-16 4.78305e-16 0)
(-4.0201e-16 3.95496e-16 0)
(-3.32527e-16 3.25178e-16 0)
(-2.97785e-16 2.83077e-16 0)
(-2.01832e-16 2.0512e-16 0)
(-7.44463e-17 6.55424e-17 0)
(-0.02 1.64196e-10 0)
(1.56358e-10 -1.56358e-10 0)
(-1.79894e-12 1.79892e-12 0)
(1.05542e-11 -1.05542e-11 0)
(-1.25201e-12 1.25199e-12 0)
(5.34971e-13 -5.34991e-13 0)
(-2.15138e-13 2.15121e-13 0)
(3.55241e-14 -3.55419e-14 0)
(-1.99566e-14 1.99397e-14 0)
(3.62471e-15 -3.64033e-15 0)
(-1.84627e-15 1.83267e-15 0)
(-1.1746e-16 1.04404e-16 0)
(-5.39322e-16 5.26485e-16 0)
(-3.82157e-16 3.6977e-16 0)
(-4.18553e-16 4.06354e-16 0)
(-4.30134e-16 4.19642e-16 0)
(-3.7554e-16 3.65278e-16 0)
(-2.31611e-16 2.26895e-16 0)
(-1.98523e-16 1.78802e-16 0)
(-1.57164e-16 1.54749e-16 0)
(-0.02 -1.49786e-10 0)
(-1.42608e-10 1.42608e-10 0)
(1.62752e-12 -1.62754e-12 0)
(-9.62329e-12 9.62326e-12 0)
(1.13959e-12 -1.13961e-12 0)
(-4.92182e-13 4.92161e-13 0)
(1.94669e-13 -1.9469e-13 0)
(-3.47267e-14 3.47057e-14 0)
(1.65585e-14 -1.65783e-14 0)
(-4.39233e-15 4.37422e-15 0)
(8.88392e-16 -9.05976e-16 0)
(-5.21124e-16 5.04371e-16 0)
(-8.60268e-17 7.1349e-17 0)
(-2.76278e-16 2.60935e-16 0)
(-3.17637e-16 3.04669e-16 0)
(-3.4907e-16 3.36755e-16 0)
(-3.27564e-16 3.15017e-16 0)
(-2.87859e-16 2.69884e-16 0)
(-2.465e-16 2.4227e-16 0)
(-1.86943e-16 1.77303e-16 0)
(-0.02 1.33599e-10 0)
(1.27203e-10 -1.27203e-10 0)
(-1.43351e-12 1.43349e-12 0)
(8.57136e-12 -8.57139e-12 0)
(-1.0211e-12 1.02108e-12 0)
(4.37995e-13 -4.3802e-13 0)
(-1.7606e-13 1.76037e-13 0)
(3.03311e-14 -3.03536e-14 0)
(-1.49968e-14 1.49749e-14 0)
(3.88279e-15 -3.90314e-15 0)
(-6.94832e-16 6.76556e-16 0)
(5.27741e-16 -5.47666e-16 0)
(3.14329e-17 -4.81065e-17 0)
(-8.27181e-18 -8.1802e-18 0)
(-1.90252e-16 1.73423e-16 0)
(-3.17637e-16 3.0087e-16 0)
(-3.17637e-16 3.03895e-16 0)
(-1.90252e-16 1.80691e-16 0)
(-2.15067e-16 1.93647e-16 0)
(-2.54772e-16 2.47887e-16 0)
(-0.02 -1.161e-10 0)
(-1.1052e-10 1.1052e-10 0)
(1.21909e-12 -1.21912e-12 0)
(-7.44509e-12 7.44507e-12 0)
(8.87416e-13 -8.87444e-13 0)
(-3.8252e-13 3.82495e-13 0)
(1.5436e-13 -1.54386e-13 0)
(-2.60645e-14 2.60409e-14 0)
(1.38123e-14 -1.38344e-14 0)
(-2.29294e-15 2.27209e-15 0)
(1.60473e-15 -1.62566e-15 0)
(3.4907e-16 -3.6997e-16 0)
(4.94654e-16 -5.13699e-16 0)
(1.60473e-16 -1.78711e-16 0)
(-5.12852e-17 3.03927e-17 0)
(-2.01832e-16 1.85543e-16 0)
(-2.33265e-16 2.16752e-16 0)
(-1.85288e-16 1.67179e-16 0)
(-2.18376e-16 2.09482e-16 0)
(-2.86204e-16 2.73753e-16 0)
(-0.02 9.77191e-11 0)
(9.30392e-11 -9.30392e-11 0)
(-1.03935e-12 1.03932e-12 0)
(6.2618e-12 -6.26183e-12 0)
(-7.57835e-13 7.57807e-13 0)
(3.24435e-13 -3.24459e-13 0)
(-1.30253e-13 1.30226e-13 0)
(2.40991e-14 -2.41243e-14 0)
(-9.2942e-15 9.27144e-15 0)
(4.16899e-15 -4.19146e-15 0)
(6.20385e-16 -6.42629e-16 0)
(1.27055e-15 -1.29051e-15 0)
(6.83251e-16 -7.04647e-16 0)
(4.35097e-16 -4.54764e-16 0)
(1.09188e-16 -1.28341e-16 0)
(-1.27386e-16 1.09561e-16 0)
(-1.91906e-16 1.76642e-16 0)
(-8.60268e-17 7.25867e-17 0)
(-1.73708e-16 1.51796e-16 0)
(-3.25909e-16 3.19649e-16 0)
(-0.02 -7.8545e-11 0)
(-7.47629e-11 7.47629e-11 0)
(8.03747e-13 -8.03775e-13 0)
(-5.04927e-12 5.04924e-12 0)
(6.15082e-13 -6.15108e-13 0)
(-2.61882e-13 2.61856e-13 0)
(1.09911e-13 -1.09936e-13 0)
(-1.6044e-14 1.60175e-14 0)
(1.12166e-14 -1.12395e-14 0)
(1.2904e-16 -1.50625e-16 0)
(2.45507e-15 -2.47691e-15 0)
(1.28709e-15 -1.30771e-15 0)
(1.10842e-15 -1.12933e-15 0)
(6.2204e-16 -6.43102e-16 0)
(2.5808e-16 -2.79278e-16 0)
(-1.32349e-17 -4.17665e-18 0)
(-9.26442e-17 7.71467e-17 0)
(-5.45939e-17 3.56536e-17 0)
(-1.8198e-16 1.65801e-16 0)
(-3.4907e-16 3.38159e-16 0)
(-0.02 5.87803e-11 0)
(5.5958e-11 -5.5958e-11 0)
(-5.94491e-13 5.94466e-13 0)
(3.72734e-12 -3.72737e-12 0)
(-4.58663e-13 4.58637e-13 0)
(1.97936e-13 -1.97961e-13 0)
(-7.54968e-14 7.54721e-14 0)
(1.76156e-14 -1.76394e-14 0)
(-2.46665e-15 2.4427e-15 0)
(4.60905e-15 -4.63179e-15 0)
(2.06133e-15 -2.08381e-15 0)
(1.99681e-15 -2.01934e-15 0)
(1.31025e-15 -1.33108e-15 0)
(8.48687e-16 -8.68776e-16 0)
(3.95392e-16 -4.15775e-16 0)
(6.61744e-17 -8.23325e-17 0)
(-6.94832e-17 5.20778e-17 0)
(-3.80503e-17 2.31994e-17 0)
(-1.96869e-16 1.76575e-16 0)
(-3.68923e-16 3.58739e-16 0)
(-0.02 -4.15127e-11 0)
(-4.02038e-11 4.02037e-11 0)
(1.13496e-12 -1.13499e-12 0)
(-2.81846e-12 2.81844e-12 0)
(4.38748e-13 -4.38773e-13 0)
(-1.51068e-13 1.51045e-13 0)
(7.21467e-14 -7.21704e-14 0)
(-5.56858e-15 5.54728e-15 0)
(9.73922e-15 -9.76181e-15 0)
(2.54937e-15 -2.57165e-15 0)
(3.23428e-15 -3.2548e-15 0)
(2.06961e-15 -2.08962e-15 0)
(1.58488e-15 -1.60414e-15 0)
(9.82691e-16 -1.00135e-15 0)
(4.94654e-16 -5.15123e-16 0)
(1.34003e-16 -1.49563e-16 0)
(1.15805e-17 -2.79726e-17 0)
(6.45201e-17 -8.15477e-17 0)
(-1.20768e-16 1.00242e-16 0)
(-4.05319e-16 3.96535e-16 0)
(-0.02 1.75769e-11 0)
(1.71523e-11 -1.71524e-11 0)
(-8.5083e-13 8.50816e-13 0)
(1.37404e-12 -1.37405e-12 0)
(-2.1012e-13 2.10109e-13 0)
(1.01591e-13 -1.01602e-13 0)
(-2.0797e-14 2.07851e-14 0)
(1.4115e-14 -1.41259e-14 0)
(2.99109e-15 -3.00112e-15 0)
(4.81419e-15 -4.82409e-15 0)
(2.9398e-15 -2.94895e-15 0)
(2.36905e-15 -2.37854e-15 0)
(1.64278e-15 -1.65374e-15 0)
(1.06541e-15 -1.07499e-15 0)
(5.59174e-16 -5.6718e-16 0)
(2.03486e-16 -2.1321e-16 0)
(1.19114e-16 -1.2544e-16 0)
(2.71315e-16 -2.80859e-16 0)
(6.78288e-17 -7.67129e-17 0)
(-4.6653e-16 4.66845e-16 0)
)
;

boundaryField
{
    movingWall
    {
        type            extrapolatedCalculated;
        value           nonuniform List<vector> 
20
(
(-0.02 1.75769e-11 0)
(1.71523e-11 -1.71524e-11 0)
(-8.5083e-13 8.50816e-13 0)
(1.37404e-12 -1.37405e-12 0)
(-2.1012e-13 2.10109e-13 0)
(1.01591e-13 -1.01602e-13 0)
(-2.0797e-14 2.07851e-14 0)
(1.4115e-14 -1.41259e-14 0)
(2.99109e-15 -3.00112e-15 0)
(4.81419e-15 -4.82409e-15 0)
(2.9398e-15 -2.94895e-15 0)
(2.36905e-15 -2.37854e-15 0)
(1.64278e-15 -1.65374e-15 0)
(1.06541e-15 -1.07499e-15 0)
(5.59174e-16 -5.6718e-16 0)
(2.03486e-16 -2.1321e-16 0)
(1.19114e-16 -1.2544e-16 0)
(2.71315e-16 -2.80859e-16 0)
(6.78288e-17 -7.67129e-17 0)
(-4.6653e-16 4.66845e-16 0)
)
;
    }
    fixedWalls
    {
        type            extrapolatedCalculated;
        value           nonuniform List<vector> 
60
(
(-0.02 -2.18897e-11 0)
(-0.02 6.70403e-11 0)
(-0.02 -1.12136e-10 0)
(-0.02 1.55089e-10 0)
(-0.02 -1.83127e-10 0)
(-0.02 1.93722e-10 0)
(-0.02 -1.98497e-10 0)
(-0.02 1.9793e-10 0)
(-0.02 -1.9402e-10 0)
(-0.02 1.86667e-10 0)
(-0.02 -1.76707e-10 0)
(-0.02 1.64196e-10 0)
(-0.02 -1.49786e-10 0)
(-0.02 1.33599e-10 0)
(-0.02 -1.161e-10 0)
(-0.02 9.77191e-11 0)
(-0.02 -7.8545e-11 0)
(-0.02 5.87803e-11 0)
(-0.02 -4.15127e-11 0)
(-0.02 1.75769e-11 0)
(5.29396e-16 -5.22547e-16 0)
(4.94654e-16 -4.82831e-16 0)
(4.74802e-16 -4.71212e-16 0)
(3.98701e-16 -3.89136e-16 0)
(3.58996e-16 -3.57366e-16 0)
(2.5808e-16 -2.49184e-16 0)
(2.0845e-16 -2.12609e-16 0)
(1.00916e-16 -9.41486e-17 0)
(5.45939e-17 -6.30153e-17 0)
(-3.97047e-17 4.28867e-17 0)
(-7.44463e-17 6.55424e-17 0)
(-1.57164e-16 1.54749e-16 0)
(-1.86943e-16 1.77303e-16 0)
(-2.54772e-16 2.47887e-16 0)
(-2.86204e-16 2.73753e-16 0)
(-3.25909e-16 3.19649e-16 0)
(-3.4907e-16 3.38159e-16 0)
(-3.68923e-16 3.58739e-16 0)
(-4.05319e-16 3.96535e-16 0)
(-4.6653e-16 4.66845e-16 0)
(-0.02 -2.18897e-11 0)
(-2.13856e-11 2.13856e-11 0)
(5.64293e-13 -5.64217e-13 0)
(-1.23284e-12 1.23291e-12 0)
(1.70312e-13 -1.70255e-13 0)
(-4.51442e-14 4.51908e-14 0)
(2.84633e-14 -2.84248e-14 0)
(2.43191e-16 -2.12005e-16 0)
(3.31038e-15 -3.28281e-15 0)
(6.10459e-16 -5.85642e-16 0)
(5.26087e-16 -5.02853e-16 0)
(2.05141e-16 -1.85948e-16 0)
(2.2003e-16 -1.9946e-16 0)
(3.57342e-16 -3.39826e-16 0)
(5.691e-16 -5.50553e-16 0)
(7.19647e-16 -7.05273e-16 0)
(6.45201e-16 -6.31277e-16 0)
(3.98701e-16 -3.85272e-16 0)
(4.1359e-16 -3.91439e-16 0)
(5.29396e-16 -5.22547e-16 0)
)
;
    }
    frontAndBack
    {
        type            empty;
    }
}


// ************************************************************************* //
