/*--------------------------------*- C++ -*----------------------------------*\
| =========                 |                                                 |
| \\      /  F ield         | OpenFOAM: The Open Source CFD Toolbox           |
|  \\    /   O peration     | Version:  2506                                  |
|   \\  /    A nd           | Website:  www.openfoam.com                      |
|    \\/     M anipulation  |                                                 |
\*---------------------------------------------------------------------------*/
FoamFile
{
    version     2.0;
    format      ascii;
    arch        "LSB;label=32;scalar=64";
    class       volScalarField;
    location    "3.5";
    object      initialResidual:Uy;
}
// * * * * * * * * * * * * * * * * * * * * * * * * * * * * * * * * * * * * * //

dimensions      [0 0 0 0 0 0 0];

internalField   nonuniform List<scalar> 
400
(
-1.01671e-13
4.16784e-14
-9.37817e-15
2.07855e-15
-4.94953e-16
7.35141e-17
-4.7636e-17
-1.62967e-17
-1.84893e-17
-1.44823e-17
-1.25865e-17
-1.07589e-17
-9.34791e-18
-8.39043e-18
-7.5163e-18
-6.55816e-18
-5.17517e-18
-3.86309e-18
-7.24871e-18
-1.91488e-18
1.09437e-13
-4.45957e-14
9.90514e-15
-2.34537e-15
3.86933e-16
-2.01404e-16
-5.23474e-17
-6.75866e-17
-5.05837e-17
-4.36291e-17
-3.70771e-17
-3.18691e-17
-2.77934e-17
-2.47885e-17
-2.23643e-17
-1.98517e-17
-1.47883e-17
-1.16424e-17
-2.17745e-17
-5.5006e-18
-1.2568e-13
5.17693e-14
-1.18756e-14
2.4429e-15
-7.71442e-16
-2.49175e-17
-1.53433e-16
-9.57213e-17
-8.48161e-17
-6.98294e-17
-6.00496e-17
-5.15697e-17
-4.50952e-17
-4.03044e-17
-3.63318e-17
-3.21988e-17
-2.42553e-17
-1.90245e-17
-3.54523e-17
-9.01041e-18
1.5674e-13
-6.45373e-14
1.38507e-14
-3.62744e-15
4.27326e-16
-3.8085e-16
-1.34315e-16
-1.43433e-16
-1.09448e-16
-9.3756e-17
-8.01181e-17
-6.91495e-17
-6.06319e-17
-5.42933e-17
-4.90527e-17
-4.36756e-17
-3.27252e-17
-2.57826e-17
-4.82143e-17
-1.22298e-17
-2.24709e-13
8.71594e-14
-2.04254e-14
3.78305e-15
-1.28719e-15
-5.05731e-17
-2.46221e-16
-1.51356e-16
-1.34823e-16
-1.11691e-16
-9.69056e-17
-8.38279e-17
-7.38219e-17
-6.63517e-17
-6.00845e-17
-5.35189e-17
-4.0317e-17
-3.18201e-17
-5.94868e-17
-1.51208e-17
2.7765e-13
-1.16612e-13
2.61256e-14
-6.53586e-15
9.81831e-16
-5.71203e-16
-1.55786e-16
-1.89833e-16
-1.4446e-16
-1.26124e-16
-1.09209e-16
-9.52998e-17
-8.43127e-17
-7.60861e-17
-6.91407e-17
-6.18161e-17
-4.65313e-17
-3.68694e-17
-6.91345e-17
-1.75648e-17
-3.12428e-13
1.32043e-13
-3.16406e-14
6.82804e-15
-2.01313e-15
1.15766e-16
-3.0795e-16
-1.63008e-16
-1.5916e-16
-1.32856e-16
-1.17814e-16
-1.03244e-16
-9.19327e-17
-8.33479e-17
-7.60032e-17
-6.80998e-17
-5.14554e-17
-4.08965e-17
-7.68145e-17
-1.95371e-17
3.41111e-13
-1.46461e-13
3.40647e-14
-8.50653e-15
1.6053e-15
-7.08369e-16
-1.09218e-16
-2.06729e-16
-1.51027e-16
-1.38602e-16
-1.21681e-16
-1.07989e-16
-9.664e-17
-8.80509e-17
-8.05875e-17
-7.24746e-17
-5.48448e-17
-4.37474e-17
-8.24565e-17
-2.09735e-17
-3.65645e-13
1.56525e-13
-3.77273e-14
8.53936e-15
-2.3972e-15
2.59389e-16
-3.23919e-16
-1.48781e-16
-1.60989e-16
-1.35361e-16
-1.23188e-16
-1.09382e-16
-9.86284e-17
-9.02692e-17
-8.29339e-17
-7.47941e-17
-5.67319e-17
-4.54378e-17
-8.59307e-17
-2.18577e-17
3.87497e-13
-1.67277e-13
3.93922e-14
-9.77139e-15
2.00052e-15
-7.61642e-16
-6.40914e-17
-1.99197e-16
-1.4155e-16
-1.35147e-16
-1.20274e-16
-1.08347e-16
-9.79971e-17
-9.01425e-17
-8.31039e-17
-7.5202e-17
-5.7135e-17
-4.58825e-17
-8.72381e-17
-2.21927e-17
-4.07891e-13
1.75405e-13
-4.22474e-14
9.74635e-15
-2.63339e-15
3.66799e-16
-3.16336e-16
-1.25298e-16
-1.48848e-16
-1.25494e-16
-1.16507e-16
-1.04519e-16
-9.51847e-17
-8.78358e-17
-8.12731e-17
-7.37783e-17
-5.60508e-17
-4.51695e-17
-8.64512e-17
-2.19746e-17
4.25985e-13
-1.84138e-13
4.35939e-14
-1.07275e-14
2.29925e-15
-7.86921e-16
-1.99774e-17
-1.80906e-16
-1.22984e-16
-1.21372e-16
-1.0884e-16
-9.90596e-17
-9.02583e-17
-8.36388e-17
-7.75825e-17
-7.06336e-17
-5.36921e-17
-4.32486e-17
-8.3618e-17
-2.12691e-17
-4.424e-13
1.90578e-13
-4.58389e-14
1.06892e-14
-2.80752e-15
4.56985e-16
-2.99801e-16
-9.71575e-17
-1.28896e-16
-1.07605e-16
-1.0134e-16
-9.13543e-17
-8.36993e-17
-7.76902e-17
-7.22796e-17
-6.60046e-17
-4.99575e-17
-4.03421e-17
-7.89374e-17
-2.00445e-17
4.56822e-13
-1.97527e-13
4.69051e-14
-1.14702e-14
2.53564e-15
-7.97727e-16
2.27556e-17
-1.56905e-16
-9.87918e-17
-1.00775e-16
-9.02509e-17
-8.25702e-17
-7.54892e-17
-7.02926e-17
-6.5484e-17
-5.9892e-17
-4.53098e-17
-3.64671e-17
-7.23931e-17
-1.84038e-17
-4.69215e-13
2.02299e-13
-4.85916e-14
1.14129e-14
-2.93106e-15
5.33462e-16
-2.77213e-16
-6.58008e-17
-1.0346e-16
-8.38372e-17
-7.98334e-17
-7.18757e-17
-6.60433e-17
-6.1488e-17
-5.74106e-17
-5.26789e-17
-3.95063e-17
-3.18685e-17
-6.42526e-17
-1.62867e-17
4.79874e-13
-2.07425e-13
4.93279e-14
-1.1996e-14
2.7126e-15
-7.92888e-16
6.47327e-17
-1.27438e-16
-6.96517e-17
-7.44963e-17
-6.58814e-17
-6.04394e-17
-5.51973e-17
-5.15768e-17
-4.81653e-17
-4.4238e-17
-3.31364e-17
-2.66281e-17
-5.45346e-17
-1.38247e-17
-4.88308e-13
2.10607e-13
-5.05266e-14
1.19303e-14
-3.00447e-15
6.005e-16
-2.47474e-16
-3.03188e-17
-7.26255e-17
-5.48014e-17
-5.30774e-17
-4.74167e-17
-4.35877e-17
-4.06463e-17
-3.80851e-17
-3.51127e-17
-2.59142e-17
-2.09256e-17
-4.38482e-17
-1.10107e-17
4.95311e-13
-2.13992e-13
5.09575e-14
-1.23281e-14
2.84836e-15
-7.74578e-16
1.07893e-16
-9.3751e-17
-3.68234e-17
-4.43105e-17
-3.77332e-17
-3.46462e-17
-3.14758e-17
-2.94109e-17
-2.75002e-17
-2.53931e-17
-1.86749e-17
-1.48482e-17
-3.22033e-17
-8.08867e-18
-4.99583e-13
2.15433e-13
-5.15335e-14
1.22348e-14
-3.00633e-15
6.56045e-16
-2.09423e-16
6.77066e-18
-3.86732e-17
-2.3147e-17
-2.346e-17
-2.01873e-17
-1.83809e-17
-1.70471e-17
-1.59671e-17
-1.50627e-17
-1.02118e-17
-7.39112e-18
-1.97105e-17
-5.22826e-18
5.03315e-13
-2.18225e-13
5.22684e-14
-1.25889e-14
3.01067e-15
-7.4578e-16
1.62317e-16
-5.43406e-17
7.32966e-19
-1.0807e-17
-6.64273e-18
-6.45863e-18
-5.5449e-18
-5.19971e-18
-4.89231e-18
-4.64367e-18
-2.74594e-18
-1.62184e-18
-6.55657e-18
-1.93681e-18
)
;

boundaryField
{
    movingWall
    {
        type            zeroGradient;
    }
    fixedWalls
    {
        type            zeroGradient;
    }
    frontAndBack
    {
        type            empty;
    }
}


// ************************************************************************* //
