/*--------------------------------*- C++ -*----------------------------------*\
| =========                 |                                                 |
| \\      /  F ield         | OpenFOAM: The Open Source CFD Toolbox           |
|  \\    /   O peration     | Version:  2506                                  |
|   \\  /    A nd           | Website:  www.openfoam.com                      |
|    \\/     M anipulation  |                                                 |
\*---------------------------------------------------------------------------*/
FoamFile
{
    version     2.0;
    format      ascii;
    arch        "LSB;label=32;scalar=64";
    class       volScalarField;
    location    "3.5";
    object      initialResidual:p;
}
// * * * * * * * * * * * * * * * * * * * * * * * * * * * * * * * * * * * * * //

dimensions      [0 0 0 0 0 0 0];

internalField   nonuniform List<scalar> 
400
(
-3.5244e-16
1.54255e-15
-2.75835e-16
9.35662e-17
-4.77273e-18
2.26508e-17
1.11721e-17
7.72868e-18
3.76065e-18
1.60049e-18
2.73419e-19
-4.34353e-19
-8.36988e-19
-8.50133e-19
-9.39569e-19
-9.48229e-19
-6.8362e-19
-5.46974e-19
-1.37154e-18
1.75905e-18
-7.18361e-16
-4.74723e-15
7.82962e-16
-2.10836e-16
1.075e-16
3.09791e-18
1.86944e-17
6.12315e-18
4.33573e-18
1.61069e-18
4.20689e-19
-3.13115e-19
-6.81829e-19
-6.788e-19
-8.67981e-19
-7.63664e-19
-4.52085e-19
-5.84411e-19
-1.36603e-18
1.83834e-18
-6.04193e-16
8.20004e-15
-1.42414e-15
4.05011e-16
-1.37772e-16
4.70429e-17
1.99725e-18
9.89359e-18
3.34405e-18
1.85266e-18
3.80891e-19
-2.43835e-19
-6.08782e-19
-6.29225e-19
-7.02745e-19
-7.30523e-19
-4.96076e-19
-4.20025e-19
-1.16177e-18
1.61394e-18
-3.3409e-15
-1.09498e-14
2.02637e-15
-4.91212e-16
2.45688e-16
-1.96293e-17
2.72831e-17
2.99749e-18
4.41441e-18
1.21129e-18
4.63942e-19
-2.06702e-19
-4.57069e-19
-5.08703e-19
-6.86309e-19
-5.05381e-19
-2.39877e-19
-4.56334e-19
-1.211e-18
1.60319e-18
1.69127e-15
1.94446e-14
-2.86039e-15
8.97921e-16
-3.18087e-16
6.96158e-17
-1.39366e-17
1.07646e-17
2.14415e-18
1.8412e-18
3.43065e-19
-5.75282e-20
-3.61247e-19
-3.36977e-19
-4.05946e-19
-4.55323e-19
-2.53436e-19
-2.64048e-19
-8.76812e-19
1.29625e-18
2.5477e-15
-2.98996e-14
3.94995e-15
-1.43494e-15
4.76087e-16
-7.22188e-17
4.40189e-17
-2.19811e-18
4.53735e-18
5.68029e-19
5.46191e-19
-5.21166e-20
-1.35783e-19
-1.98613e-19
-3.29153e-19
-1.5222e-19
8.80965e-20
-2.79053e-19
-9.24016e-19
1.22443e-18
-8.04257e-15
3.45223e-14
-5.08801e-15
1.92186e-15
-6.0013e-16
1.33115e-16
-4.46909e-17
1.33012e-17
-9.34039e-19
1.83121e-18
1.96494e-19
1.98001e-19
-7.73665e-20
5.73753e-21
2.40058e-20
-1.05245e-20
4.92275e-20
-4.41925e-20
-5.08479e-19
8.28911e-19
1.12111e-14
-3.60722e-14
5.40719e-15
-2.01315e-15
6.26179e-16
-1.26942e-16
5.47628e-17
-8.96173e-18
4.12131e-18
-3.88974e-19
5.91031e-19
1.58897e-19
2.26582e-19
1.85226e-19
6.5866e-20
3.36758e-19
4.79345e-19
-6.13823e-20
-6.02064e-19
7.51305e-19
-1.24162e-14
3.60507e-14
-5.58545e-15
2.10814e-15
-6.63004e-16
1.41991e-16
-5.58942e-17
1.13095e-17
-3.04771e-18
1.33677e-18
6.97896e-20
4.13953e-19
3.37808e-19
3.93241e-19
4.70657e-19
4.343e-19
4.11503e-19
1.68888e-19
-1.32022e-19
3.29023e-19
1.2709e-14
-3.44625e-14
5.29273e-15
-1.99575e-15
6.00878e-16
-1.37271e-16
4.88458e-17
-1.23366e-17
2.60866e-18
-1.07534e-18
4.81874e-19
3.28267e-19
6.00921e-19
5.81756e-19
4.92273e-19
7.5246e-19
8.6471e-19
1.36553e-19
-2.22745e-19
2.26889e-19
-1.19283e-14
3.26823e-14
-5.1309e-15
1.93293e-15
-6.17796e-16
1.23981e-16
-5.66276e-17
7.54065e-18
-4.42122e-18
5.58956e-19
-9.09125e-20
5.75299e-19
6.39105e-19
7.47634e-19
8.4467e-19
8.61147e-19
7.37687e-19
3.45855e-19
2.19743e-19
-1.8098e-19
1.16002e-14
-2.99525e-14
4.6422e-15
-1.76091e-15
5.17703e-16
-1.28485e-16
3.78573e-17
-1.39195e-17
7.58498e-19
-1.63399e-18
2.39942e-19
4.33104e-19
8.44576e-19
8.56627e-19
8.21518e-19
1.11133e-18
1.14584e-18
3.30499e-19
1.3492e-19
-2.9086e-19
-1.01856e-14
2.73284e-14
-4.32467e-15
1.61916e-15
-5.27261e-16
9.74009e-17
-5.18985e-17
3.63506e-18
-5.28868e-18
-2.42128e-19
-2.73503e-19
5.85923e-19
8.46501e-19
9.48003e-19
1.09209e-18
1.17556e-18
1.02636e-18
4.65092e-19
5.11231e-19
-6.36695e-19
9.59968e-15
-2.40302e-14
3.73444e-15
-1.42662e-15
4.07811e-16
-1.099e-16
2.56135e-17
-1.39456e-17
-8.39328e-19
-2.01614e-18
2.84418e-20
4.96517e-19
1.00614e-18
1.03799e-18
1.04283e-18
1.3708e-18
1.32979e-18
4.51927e-19
4.50037e-19
-7.30324e-19
-7.73935e-15
2.08503e-14
-3.31313e-15
1.23188e-15
-4.10998e-16
6.74001e-17
-4.35663e-17
2.68656e-19
-5.40224e-18
-7.62136e-19
-2.97046e-19
6.49126e-19
1.03207e-18
1.12885e-18
1.28119e-18
1.42079e-18
1.22624e-18
5.68727e-19
7.70474e-19
-1.00239e-18
7.11069e-15
-1.73581e-14
2.69206e-15
-1.04e-15
2.84941e-16
-8.54965e-17
1.35005e-17
-1.27007e-17
-1.98696e-18
-1.97477e-18
-2.09293e-20
6.12338e-19
1.15651e-18
1.22207e-18
1.23842e-18
1.55695e-18
1.45985e-18
5.69137e-19
7.3242e-19
-1.09027e-18
-5.0443e-15
1.40043e-14
-2.24426e-15
8.21962e-16
-2.86124e-16
3.63895e-17
-3.451e-17
-3.31435e-18
-5.53912e-18
-1.43577e-18
-4.8008e-19
5.56505e-19
1.05179e-18
1.16982e-18
1.32296e-18
1.55151e-18
1.34641e-18
5.77021e-19
9.12598e-19
-1.27232e-18
4.33941e-15
-1.02074e-14
1.56121e-15
-6.16928e-16
1.53216e-16
-5.92796e-17
-1.28369e-19
-1.23469e-17
-4.11435e-18
-2.67329e-18
-6.11117e-19
3.23905e-19
1.02265e-18
1.11433e-18
1.31095e-18
1.61191e-18
1.51749e-18
6.64287e-19
8.13916e-19
-1.33037e-18
-2.14293e-15
7.01656e-15
-1.12793e-15
3.98471e-16
-1.48531e-16
7.2172e-18
-2.39225e-17
-6.83137e-18
-5.90466e-18
-2.47496e-18
-1.04472e-18
8.45115e-20
6.95139e-19
8.45004e-19
1.06906e-18
1.54998e-18
1.32644e-18
4.31626e-19
7.86009e-19
-1.39522e-18
1.60066e-15
-3.09395e-15
5.78279e-16
-2.04088e-16
4.65278e-17
-2.97739e-17
-6.14464e-18
-9.13308e-18
-4.44903e-18
-2.88899e-18
-1.36339e-18
-4.94786e-19
1.4278e-19
2.18518e-19
5.67348e-19
9.66152e-19
5.67873e-19
1.25555e-19
8.95166e-19
-1.34848e-18
)
;

boundaryField
{
    movingWall
    {
        type            zeroGradient;
    }
    fixedWalls
    {
        type            zeroGradient;
    }
    frontAndBack
    {
        type            empty;
    }
}


// ************************************************************************* //
