/*--------------------------------*- C++ -*----------------------------------*\
| =========                 |                                                 |
| \\      /  F ield         | OpenFOAM: The Open Source CFD Toolbox           |
|  \\    /   O peration     | Version:  2506                                  |
|   \\  /    A nd           | Website:  www.openfoam.com                      |
|    \\/     M anipulation  |                                                 |
\*---------------------------------------------------------------------------*/
FoamFile
{
    version     2.0;
    format      ascii;
    arch        "LSB;label=32;scalar=64";
    class       volScalarField;
    location    "3.5";
    object      initialResidual:k;
}
// * * * * * * * * * * * * * * * * * * * * * * * * * * * * * * * * * * * * * //

dimensions      [0 0 0 0 0 0 0];

internalField   nonuniform List<scalar> 
400
(
-8.35163e-12
-8.30715e-12
-8.35524e-12
-8.30216e-12
-8.34719e-12
-8.30998e-12
-8.3346e-12
-8.31878e-12
-8.32434e-12
-8.32813e-12
-8.32662e-12
-8.32687e-12
-8.32687e-12
-8.32657e-12
-8.32687e-12
-8.32675e-12
-8.32579e-12
-8.32598e-12
-8.32594e-12
-8.32594e-12
-1.55503e-11
-1.56182e-11
-1.5498e-11
-1.55096e-11
-1.5548e-11
-1.55111e-11
-1.55327e-11
-1.54964e-11
-1.55208e-11
-1.54887e-11
-1.55102e-11
-1.54835e-11
-1.55014e-11
-1.54786e-11
-1.5493e-11
-1.54768e-11
-1.54867e-11
-1.54802e-11
-1.54802e-11
-1.54787e-11
-2.57985e-11
-2.57844e-11
-2.57962e-11
-2.57393e-11
-2.57736e-11
-2.57022e-11
-2.57437e-11
-2.5682e-11
-2.571e-11
-2.56673e-11
-2.56831e-11
-2.56652e-11
-2.5658e-11
-2.56635e-11
-2.56326e-11
-2.56347e-11
-2.56357e-11
-2.56319e-11
-2.56317e-11
-2.56301e-11
-3.39578e-11
-3.38982e-11
-3.39694e-11
-3.38668e-11
-3.39082e-11
-3.3797e-11
-3.38654e-11
-3.37602e-11
-3.38103e-11
-3.37438e-11
-3.37675e-11
-3.37248e-11
-3.37442e-11
-3.37063e-11
-3.37221e-11
-3.3694e-11
-3.36931e-11
-3.36889e-11
-3.36811e-11
-3.36829e-11
-3.90633e-11
-3.91762e-11
-3.89581e-11
-3.90136e-11
-3.89827e-11
-3.88638e-11
-3.89496e-11
-3.88522e-11
-3.88891e-11
-3.88043e-11
-3.8839e-11
-3.87657e-11
-3.88012e-11
-3.87825e-11
-3.8742e-11
-3.87448e-11
-3.87317e-11
-3.873e-11
-3.87274e-11
-3.87255e-11
-4.19648e-11
-4.20282e-11
-4.18621e-11
-4.19849e-11
-4.17601e-11
-4.17767e-11
-4.18132e-11
-4.16791e-11
-4.17663e-11
-4.16523e-11
-4.16987e-11
-4.16297e-11
-4.16622e-11
-4.16076e-11
-4.16157e-11
-4.15865e-11
-4.15838e-11
-4.15796e-11
-4.15679e-11
-4.15703e-11
-4.35935e-11
-4.38083e-11
-4.34182e-11
-4.35363e-11
-4.34647e-11
-4.34357e-11
-4.34114e-11
-4.32955e-11
-4.33932e-11
-4.32723e-11
-4.33352e-11
-4.32414e-11
-4.3286e-11
-4.32028e-11
-4.32506e-11
-4.32121e-11
-4.3195e-11
-4.31917e-11
-4.31824e-11
-4.31844e-11
-4.46397e-11
-4.45871e-11
-4.46376e-11
-4.45101e-11
-4.45105e-11
-4.45601e-11
-4.43259e-11
-4.4519e-11
-4.4232e-11
-4.44041e-11
-4.42205e-11
-4.43596e-11
-4.41774e-11
-4.42574e-11
-4.4198e-11
-4.42006e-11
-4.42034e-11
-4.41926e-11
-4.41921e-11
-4.4188e-11
-4.53721e-11
-4.5439e-11
-4.52785e-11
-4.53307e-11
-4.5196e-11
-4.51947e-11
-4.51421e-11
-4.50658e-11
-4.51313e-11
-4.50118e-11
-4.50786e-11
-4.49656e-11
-4.50263e-11
-4.49306e-11
-4.49853e-11
-4.4942e-11
-4.49272e-11
-4.49235e-11
-4.49144e-11
-4.49156e-11
-4.6007e-11
-4.60416e-11
-4.5922e-11
-4.5939e-11
-4.58201e-11
-4.57593e-11
-4.58402e-11
-4.56853e-11
-4.57645e-11
-4.56304e-11
-4.56996e-11
-4.55823e-11
-4.56513e-11
-4.55456e-11
-4.56086e-11
-4.55281e-11
-4.5577e-11
-4.55448e-11
-4.55374e-11
-4.55344e-11
-4.6611e-11
-4.65969e-11
-4.66029e-11
-4.64458e-11
-4.65188e-11
-4.63779e-11
-4.64299e-11
-4.63059e-11
-4.63407e-11
-4.62982e-11
-4.6241e-11
-4.62304e-11
-4.62048e-11
-4.6148e-11
-4.61989e-11
-4.61265e-11
-4.61699e-11
-4.61374e-11
-4.61393e-11
-4.61317e-11
-4.72604e-11
-4.70888e-11
-4.73675e-11
-4.70742e-11
-4.71447e-11
-4.7015e-11
-4.70581e-11
-4.69303e-11
-4.69673e-11
-4.69012e-11
-4.6896e-11
-4.69094e-11
-4.67901e-11
-4.68576e-11
-4.67565e-11
-4.67991e-11
-4.67542e-11
-4.67646e-11
-4.67582e-11
-4.67579e-11
-4.79396e-11
-4.81114e-11
-4.77765e-11
-4.78998e-11
-4.77443e-11
-4.77169e-11
-4.77312e-11
-4.76191e-11
-4.76939e-11
-4.75229e-11
-4.76321e-11
-4.74973e-11
-4.75655e-11
-4.74685e-11
-4.75185e-11
-4.74633e-11
-4.74812e-11
-4.74557e-11
-4.74478e-11
-4.74466e-11
-4.87608e-11
-4.86324e-11
-4.87557e-11
-4.87061e-11
-4.85542e-11
-4.86021e-11
-4.84373e-11
-4.85189e-11
-4.83664e-11
-4.83847e-11
-4.83499e-11
-4.8302e-11
-4.8323e-11
-4.83014e-11
-4.8254e-11
-4.82458e-11
-4.82375e-11
-4.82296e-11
-4.8229e-11
-4.82257e-11
-4.96659e-11
-4.96628e-11
-4.96136e-11
-4.95533e-11
-4.94686e-11
-4.94139e-11
-4.94369e-11
-4.93143e-11
-4.93848e-11
-4.92281e-11
-4.9307e-11
-4.91922e-11
-4.92509e-11
-4.91394e-11
-4.9211e-11
-4.91353e-11
-4.91549e-11
-4.91362e-11
-4.91234e-11
-4.91247e-11
-5.07229e-11
-5.09209e-11
-5.0537e-11
-5.06646e-11
-5.05473e-11
-5.04464e-11
-5.05464e-11
-5.03596e-11
-5.0428e-11
-5.02997e-11
-5.03708e-11
-5.02392e-11
-5.03211e-11
-5.02061e-11
-5.02675e-11
-5.0175e-11
-5.02356e-11
-5.01963e-11
-5.01839e-11
-5.01834e-11
-5.20226e-11
-5.21639e-11
-5.18642e-11
-5.19157e-11
-5.18673e-11
-5.17438e-11
-5.18306e-11
-5.16497e-11
-5.1731e-11
-5.15866e-11
-5.16592e-11
-5.14876e-11
-5.16029e-11
-5.14768e-11
-5.15393e-11
-5.14648e-11
-5.15039e-11
-5.14685e-11
-5.14614e-11
-5.14568e-11
-5.35647e-11
-5.35761e-11
-5.35271e-11
-5.33743e-11
-5.34425e-11
-5.32758e-11
-5.33249e-11
-5.32299e-11
-5.31882e-11
-5.32084e-11
-5.30613e-11
-5.31451e-11
-5.30094e-11
-5.30025e-11
-5.3031e-11
-5.29535e-11
-5.30114e-11
-5.29699e-11
-5.29738e-11
-5.29637e-11
-5.51309e-11
-5.49972e-11
-5.51099e-11
-5.51069e-11
-5.48388e-11
-5.49847e-11
-5.47383e-11
-5.48397e-11
-5.46765e-11
-5.46944e-11
-5.4657e-11
-5.463e-11
-5.45925e-11
-5.46197e-11
-5.45209e-11
-5.45266e-11
-5.45208e-11
-5.45095e-11
-5.45097e-11
-5.4505e-11
-5.55253e-11
-5.55825e-11
-5.55741e-11
-5.55315e-11
-5.56155e-11
-5.54968e-11
-5.56161e-11
-5.54832e-11
-5.56171e-11
-5.54859e-11
-5.56022e-11
-5.55041e-11
-5.55762e-11
-5.55289e-11
-5.55627e-11
-5.55382e-11
-5.55523e-11
-5.55472e-11
-5.55484e-11
-5.55484e-11
)
;

boundaryField
{
    movingWall
    {
        type            zeroGradient;
    }
    fixedWalls
    {
        type            zeroGradient;
    }
    frontAndBack
    {
        type            empty;
    }
}


// ************************************************************************* //
