/*--------------------------------*- C++ -*----------------------------------*\
| =========                 |                                                 |
| \\      /  F ield         | OpenFOAM: The Open Source CFD Toolbox           |
|  \\    /   O peration     | Version:  2506                                  |
|   \\  /    A nd           | Website:  www.openfoam.com                      |
|    \\/     M anipulation  |                                                 |
\*---------------------------------------------------------------------------*/
FoamFile
{
    version     2.0;
    format      ascii;
    arch        "LSB;label=32;scalar=64";
    class       volScalarField;
    location    "3.5";
    object      initialResidual:Ux;
}
// * * * * * * * * * * * * * * * * * * * * * * * * * * * * * * * * * * * * * //

dimensions      [0 0 0 0 0 0 0];

internalField   nonuniform List<scalar> 
400
(
-8.33764e-15
2.66167e-15
-1.51916e-15
-3.24996e-16
-5.20722e-16
-3.62273e-16
-3.03224e-16
-2.37779e-16
-1.92249e-16
-1.55569e-16
-1.26825e-16
-1.03385e-16
-8.39986e-17
-6.74645e-17
-5.29836e-17
-3.97089e-17
-2.87991e-17
-2.16976e-17
-1.2265e-17
-3.38813e-19
2.67758e-14
-1.06549e-14
2.45505e-15
-1.41416e-15
-2.48059e-16
-4.34941e-16
-2.74025e-16
-2.35245e-16
-1.83935e-16
-1.50636e-16
-1.2261e-16
-1.00214e-16
-8.15727e-17
-6.55536e-17
-5.1398e-17
-3.8889e-17
-2.82028e-17
-2.07354e-17
-1.19262e-17
-4.06576e-19
-4.8255e-14
1.77241e-14
-6.38181e-15
9.4823e-16
-8.34327e-16
-2.38565e-16
-2.96008e-16
-2.04867e-16
-1.72856e-16
-1.38358e-16
-1.13895e-16
-9.32143e-17
-7.60974e-17
-6.13929e-17
-4.84435e-17
-3.62666e-17
-2.63935e-17
-2.00035e-17
-1.12079e-17
-3.25261e-19
7.00546e-14
-2.73617e-14
7.0512e-15
-2.72399e-15
1.40919e-16
-4.71831e-16
-1.90982e-16
-1.97155e-16
-1.45927e-16
-1.23301e-16
-1.00695e-16
-8.32871e-17
-6.83793e-17
-5.53417e-17
-4.35849e-17
-3.33257e-17
-2.43674e-17
-1.75505e-17
-1.00695e-17
-4.20128e-19
-1.12538e-13
4.16149e-14
-1.31875e-14
2.9404e-15
-1.08631e-15
3.998e-19
-2.3681e-16
-1.33079e-16
-1.27075e-16
-1.00932e-16
-8.54622e-17
-7.08391e-17
-5.86486e-17
-4.78133e-17
-3.81233e-17
-2.87449e-17
-2.10606e-17
-1.59242e-17
-8.74816e-18
-3.11708e-19
1.52389e-13
-5.60853e-14
1.79138e-14
-4.68552e-15
1.04803e-15
-5.00868e-16
-4.18638e-17
-1.35451e-16
-8.65668e-17
-8.11119e-17
-6.68953e-17
-5.69952e-17
-4.761e-17
-3.91804e-17
-3.11437e-17
-2.43403e-17
-1.79978e-17
-1.2448e-17
-7.06764e-18
-4.47233e-19
-1.7131e-13
6.61261e-14
-2.17084e-14
5.82728e-15
-1.70548e-15
3.98038e-16
-2.01018e-16
-3.48639e-17
-7.33666e-17
-5.34308e-17
-4.95751e-17
-4.18909e-17
-3.57516e-17
-2.97681e-17
-2.43268e-17
-1.85534e-17
-1.3749e-17
-1.02118e-17
-5.32614e-18
-2.84603e-19
1.73516e-13
-6.58749e-14
2.17454e-14
-5.77391e-15
1.63113e-15
-5.19482e-16
9.51184e-17
-7.60771e-17
-2.46249e-17
-3.63004e-17
-2.9531e-17
-2.73287e-17
-2.36492e-17
-2.01594e-17
-1.62563e-17
-1.34441e-17
-1.01305e-17
-6.20706e-18
-3.34747e-18
-4.20128e-19
-1.74596e-13
6.80394e-14
-2.231e-14
6.19494e-15
-1.68113e-15
5.32506e-16
-1.31283e-16
3.59413e-17
-2.10403e-17
-8.80914e-18
-1.35864e-17
-1.2265e-17
-1.17365e-17
-1.04354e-17
-9.1344e-18
-7.23027e-18
-5.52265e-18
-3.74727e-18
-1.50433e-18
-2.43945e-19
1.63947e-13
-6.2501e-14
2.07948e-14
-5.43946e-15
1.68469e-15
-4.25238e-16
1.65822e-16
-1.71575e-17
2.46859e-17
4.69595e-18
4.75694e-18
1.12486e-18
-2.23617e-19
-1.10453e-18
-1.15196e-18
-2.08031e-18
-1.84992e-18
3.72694e-19
4.81115e-19
-3.52366e-19
-1.5764e-13
6.16254e-14
-2.01186e-14
5.72349e-15
-1.45223e-15
5.62274e-16
-5.96176e-17
8.50082e-17
2.39338e-17
2.86365e-17
1.81943e-17
1.44741e-17
1.05439e-17
7.83336e-18
5.48877e-18
3.80826e-18
2.73761e-18
2.72406e-18
2.22261e-18
-1.49078e-19
1.4215e-13
-5.42767e-14
1.81837e-14
-4.66834e-15
1.55751e-15
-3.05677e-16
2.04054e-16
3.34273e-17
6.29108e-17
3.89703e-17
3.37458e-17
2.5865e-17
2.0566e-17
1.6053e-17
1.27055e-17
8.51099e-18
6.09186e-18
6.47811e-18
4.08609e-18
-2.30393e-19
-1.31738e-13
5.16545e-14
-1.67529e-14
4.88625e-15
-1.14156e-15
5.4019e-16
6.2816e-18
1.19364e-16
6.06747e-17
5.86282e-17
4.46691e-17
3.69306e-17
2.95919e-17
2.37576e-17
1.83772e-17
1.36745e-17
1.0117e-17
8.67362e-18
5.63108e-18
-8.13152e-20
1.13872e-13
-4.34497e-14
1.46918e-14
-3.6612e-15
1.33577e-15
-1.77206e-16
2.22743e-16
7.58535e-17
9.21504e-17
6.66513e-17
5.71036e-17
4.60786e-17
3.77506e-17
3.05e-17
2.43742e-17
1.76047e-17
1.28681e-17
1.1872e-17
7.26415e-18
-2.1684e-19
-1.00377e-13
3.94597e-14
-1.26591e-14
3.8253e-15
-7.82184e-16
4.8703e-16
6.68411e-17
1.43155e-16
9.02937e-17
8.1986e-17
6.55671e-17
5.47658e-17
4.48182e-17
3.65376e-17
2.88737e-17
2.16773e-17
1.61004e-17
1.37626e-17
8.61941e-18
-1.21973e-19
8.20524e-14
-3.12006e-14
1.07165e-14
-2.52772e-15
1.06295e-15
-4.5672e-17
2.28956e-16
1.11497e-16
1.14004e-16
8.81185e-17
7.49251e-17
6.16301e-17
5.08762e-17
4.15046e-17
3.33663e-17
2.46859e-17
1.81536e-17
1.61478e-17
9.95433e-18
-2.03288e-19
-6.77711e-14
2.68217e-14
-8.41532e-15
2.72059e-15
-4.18278e-16
4.23225e-16
1.20787e-16
1.5952e-16
1.13123e-16
9.90486e-17
8.08747e-17
6.76136e-17
5.57551e-17
4.57195e-17
3.64631e-17
2.73693e-17
2.04846e-17
1.74557e-17
1.07133e-17
-9.48677e-20
4.75597e-14
-1.77985e-14
6.36974e-15
-1.28452e-15
7.53615e-16
9.00701e-17
2.25345e-16
1.40865e-16
1.28681e-16
1.03142e-16
8.67836e-17
7.18758e-17
5.95091e-17
4.8762e-17
3.91397e-17
2.93141e-17
2.17315e-17
1.86686e-17
1.12486e-17
-1.76183e-19
-3.51192e-14
1.41874e-14
-4.1377e-15
1.58994e-15
-5.07542e-17
3.47541e-16
1.69407e-16
1.68207e-16
1.29217e-16
1.09572e-16
9.02192e-17
7.51555e-17
6.21383e-17
5.10117e-17
4.08134e-17
3.04186e-17
2.27818e-17
2.00577e-17
1.19872e-17
-3.65918e-19
1.71999e-14
-6.8098e-15
2.84704e-15
-3.43435e-16
5.17022e-16
1.85731e-16
2.21475e-16
1.59669e-16
1.36989e-16
1.11402e-16
9.28145e-17
7.6687e-17
6.34936e-17
5.21027e-17
4.16469e-17
3.09743e-17
2.31816e-17
2.12571e-17
1.32815e-17
-5.69206e-19
)
;

boundaryField
{
    movingWall
    {
        type            zeroGradient;
    }
    fixedWalls
    {
        type            zeroGradient;
    }
    frontAndBack
    {
        type            empty;
    }
}


// ************************************************************************* //
