/*--------------------------------*- C++ -*----------------------------------*\
| =========                 |                                                 |
| \\      /  F ield         | OpenFOAM: The Open Source CFD Toolbox           |
|  \\    /   O peration     | Version:  2506                                  |
|   \\  /    A nd           | Website:  www.openfoam.com                      |
|    \\/     M anipulation  |                                                 |
\*---------------------------------------------------------------------------*/
FoamFile
{
    version     2.0;
    format      ascii;
    arch        "LSB;label=32;scalar=64";
    class       volScalarField;
    location    "3.5";
    object      initialResidual:epsilon;
}
// * * * * * * * * * * * * * * * * * * * * * * * * * * * * * * * * * * * * * //

dimensions      [0 0 0 0 0 0 0];

internalField   nonuniform List<scalar> 
400
(
0
0
0
0
0
0
0
0
0
0
0
0
0
0
0
0
0
0
0
0
0
-2.65684e-11
-2.66613e-11
-2.66681e-11
-2.67692e-11
-2.68077e-11
-2.6903e-11
-2.6952e-11
-2.70445e-11
-2.70988e-11
-2.71921e-11
-2.72511e-11
-2.73439e-11
-2.74101e-11
-2.74994e-11
-2.75749e-11
-2.76589e-11
-2.77423e-11
-5.54909e-11
0
0
-5.05076e-11
-5.06807e-11
-5.07225e-11
-5.09583e-11
-5.10492e-11
-5.12691e-11
-5.13839e-11
-5.15985e-11
-5.17247e-11
-5.19421e-11
-5.20787e-11
-5.22962e-11
-5.24486e-11
-5.26598e-11
-5.28327e-11
-5.30333e-11
-5.32242e-11
-1.06483e-10
0
0
-7.22223e-11
-7.24908e-11
-7.25693e-11
-7.29403e-11
-7.30887e-11
-7.34372e-11
-7.36236e-11
-7.39652e-11
-7.41708e-11
-7.45177e-11
-7.47403e-11
-7.50892e-11
-7.5337e-11
-7.56789e-11
-7.59578e-11
-7.62867e-11
-7.65937e-11
-1.5325e-10
0
0
-8.69171e-11
-8.72902e-11
-8.73834e-11
-8.78494e-11
-8.80407e-11
-8.84819e-11
-8.8718e-11
-8.9155e-11
-8.94156e-11
-8.98591e-11
-9.01445e-11
-9.05891e-11
-9.09077e-11
-9.13451e-11
-9.17031e-11
-9.21268e-11
-9.25201e-11
-1.85137e-10
0
0
-9.55863e-11
-9.60172e-11
-9.61213e-11
-9.66436e-11
-9.68588e-11
-9.73588e-11
-9.76265e-11
-9.81187e-11
-9.84165e-11
-9.89164e-11
-9.92406e-11
-9.97448e-11
-1.00106e-10
-1.00603e-10
-1.01008e-10
-1.01491e-10
-1.01937e-10
-2.03996e-10
0
0
-1.00602e-10
-1.01089e-10
-1.01192e-10
-1.01745e-10
-1.01976e-10
-1.0251e-10
-1.02793e-10
-1.03319e-10
-1.03638e-10
-1.04171e-10
-1.0452e-10
-1.05057e-10
-1.05445e-10
-1.05975e-10
-1.0641e-10
-1.06926e-10
-1.07404e-10
-2.14945e-10
0
0
-1.03785e-10
-1.0424e-10
-1.04367e-10
-1.04943e-10
-1.05183e-10
-1.05738e-10
-1.06033e-10
-1.06582e-10
-1.0691e-10
-1.07468e-10
-1.07828e-10
-1.08388e-10
-1.0879e-10
-1.09343e-10
-1.09795e-10
-1.10334e-10
-1.1083e-10
-2.21808e-10
0
0
-1.06069e-10
-1.06547e-10
-1.06672e-10
-1.07264e-10
-1.07512e-10
-1.0808e-10
-1.08383e-10
-1.08946e-10
-1.09286e-10
-1.09856e-10
-1.10229e-10
-1.10803e-10
-1.11218e-10
-1.11786e-10
-1.12251e-10
-1.12805e-10
-1.13316e-10
-2.26786e-10
0
0
-1.08015e-10
-1.08502e-10
-1.08631e-10
-1.09235e-10
-1.09489e-10
-1.10069e-10
-1.10383e-10
-1.10956e-10
-1.11304e-10
-1.11887e-10
-1.12269e-10
-1.12856e-10
-1.13282e-10
-1.13861e-10
-1.14339e-10
-1.14904e-10
-1.15429e-10
-2.31014e-10
0
0
-1.09871e-10
-1.10407e-10
-1.1053e-10
-1.11139e-10
-1.11402e-10
-1.11992e-10
-1.12313e-10
-1.12898e-10
-1.13252e-10
-1.1385e-10
-1.14238e-10
-1.14839e-10
-1.15273e-10
-1.15866e-10
-1.16354e-10
-1.16933e-10
-1.17468e-10
-2.35097e-10
0
0
-1.11868e-10
-1.12377e-10
-1.12518e-10
-1.1314e-10
-1.1341e-10
-1.14011e-10
-1.14341e-10
-1.14936e-10
-1.15302e-10
-1.1591e-10
-1.16308e-10
-1.16923e-10
-1.17366e-10
-1.17974e-10
-1.18471e-10
-1.19065e-10
-1.19611e-10
-2.39387e-10
0
0
-1.14031e-10
-1.14582e-10
-1.14711e-10
-1.15352e-10
-1.15625e-10
-1.16243e-10
-1.16578e-10
-1.17191e-10
-1.17563e-10
-1.18185e-10
-1.18596e-10
-1.19221e-10
-1.19679e-10
-1.20298e-10
-1.20811e-10
-1.21418e-10
-1.21978e-10
-2.44124e-10
0
0
-1.16545e-10
-1.17045e-10
-1.17201e-10
-1.17865e-10
-1.18143e-10
-1.18779e-10
-1.19121e-10
-1.19752e-10
-1.20132e-10
-1.20773e-10
-1.21192e-10
-1.21837e-10
-1.22305e-10
-1.22944e-10
-1.23468e-10
-1.24093e-10
-1.24668e-10
-2.49509e-10
0
0
-1.19394e-10
-1.19955e-10
-1.20102e-10
-1.20776e-10
-1.21065e-10
-1.21718e-10
-1.22074e-10
-1.22721e-10
-1.23116e-10
-1.23774e-10
-1.24207e-10
-1.24872e-10
-1.25354e-10
-1.26013e-10
-1.26553e-10
-1.27198e-10
-1.27791e-10
-2.55759e-10
0
0
-1.22748e-10
-1.23416e-10
-1.2354e-10
-1.24229e-10
-1.24531e-10
-1.25205e-10
-1.25572e-10
-1.2624e-10
-1.26648e-10
-1.2733e-10
-1.27781e-10
-1.28467e-10
-1.28969e-10
-1.29649e-10
-1.3021e-10
-1.30878e-10
-1.31493e-10
-2.63169e-10
0
0
-1.26907e-10
-1.27523e-10
-1.27677e-10
-1.28401e-10
-1.28716e-10
-1.29417e-10
-1.29799e-10
-1.30496e-10
-1.30922e-10
-1.3163e-10
-1.32099e-10
-1.32811e-10
-1.33338e-10
-1.34043e-10
-1.34631e-10
-1.35326e-10
-1.35967e-10
-2.72124e-10
0
0
-1.31775e-10
-1.32445e-10
-1.32604e-10
-1.33349e-10
-1.33681e-10
-1.34411e-10
-1.34812e-10
-1.3554e-10
-1.35986e-10
-1.36728e-10
-1.37217e-10
-1.37968e-10
-1.38513e-10
-1.39257e-10
-1.39869e-10
-1.40601e-10
-1.4127e-10
-2.82736e-10
0
0
-1.3753e-10
-1.3818e-10
-1.3831e-10
-1.39076e-10
-1.3939e-10
-1.40132e-10
-1.4053e-10
-1.41265e-10
-1.41716e-10
-1.42466e-10
-1.42971e-10
-1.43728e-10
-1.443e-10
-1.45053e-10
-1.457e-10
-1.46439e-10
-1.47154e-10
-2.94038e-10
0
0
0
0
0
0
0
0
0
0
0
0
0
0
0
0
0
0
0
0
0
)
;

boundaryField
{
    movingWall
    {
        type            zeroGradient;
    }
    fixedWalls
    {
        type            zeroGradient;
    }
    frontAndBack
    {
        type            empty;
    }
}


// ************************************************************************* //
