/*--------------------------------*- C++ -*----------------------------------*\
| =========                 |                                                 |
| \\      /  F ield         | OpenFOAM: The Open Source CFD Toolbox           |
|  \\    /   O peration     | Version:  2506                                  |
|   \\  /    A nd           | Website:  www.openfoam.com                      |
|    \\/     M anipulation  |                                                 |
\*---------------------------------------------------------------------------*/
FoamFile
{
    version     2.0;
    format      ascii;
    arch        "LSB;label=32;scalar=64";
    class       volScalarField;
    location    "3.5";
    object      k;
}
// * * * * * * * * * * * * * * * * * * * * * * * * * * * * * * * * * * * * * //

dimensions      [0 2 -2 0 0 0 0];

internalField   nonuniform List<scalar> 
400
(
4.02494e-05
4.02488e-05
4.02482e-05
4.02477e-05
4.02472e-05
4.02468e-05
4.02464e-05
4.02461e-05
4.02458e-05
4.02455e-05
4.02453e-05
4.02451e-05
4.02449e-05
4.02448e-05
4.02447e-05
4.02446e-05
4.02445e-05
4.02445e-05
4.02445e-05
4.02445e-05
5.44722e-05
5.44714e-05
5.44493e-05
5.44404e-05
5.44242e-05
5.4417e-05
5.44026e-05
5.43968e-05
5.43844e-05
5.43798e-05
5.43694e-05
5.43659e-05
5.43576e-05
5.43551e-05
5.43491e-05
5.43474e-05
5.43439e-05
5.4343e-05
5.43418e-05
5.43414e-05
7.29541e-05
7.29522e-05
7.29114e-05
7.28954e-05
7.28671e-05
7.28528e-05
7.28289e-05
7.28161e-05
7.27964e-05
7.27854e-05
7.27693e-05
7.27608e-05
7.2748e-05
7.27418e-05
7.27329e-05
7.27286e-05
7.27233e-05
7.2721e-05
7.27192e-05
7.27185e-05
8.736e-05
8.73575e-05
8.72974e-05
8.72749e-05
8.72329e-05
8.72129e-05
8.71773e-05
8.71593e-05
8.71302e-05
8.71145e-05
8.70909e-05
8.70784e-05
8.70596e-05
8.70508e-05
8.70369e-05
8.70314e-05
8.70233e-05
8.70202e-05
8.70175e-05
8.70165e-05
9.64019e-05
9.6398e-05
9.6326e-05
9.62961e-05
9.62454e-05
9.622e-05
9.61765e-05
9.61539e-05
9.61176e-05
9.60989e-05
9.60692e-05
9.60545e-05
9.6031e-05
9.60203e-05
9.60039e-05
9.59963e-05
9.59868e-05
9.59827e-05
9.59794e-05
9.59781e-05
0.000101551
0.000101546
0.000101465
0.000101432
0.000101377
0.000101347
0.000101298
0.000101274
0.000101233
0.000101212
0.000101179
0.000101163
0.000101136
0.000101124
0.000101106
0.000101098
0.000101087
0.000101082
0.000101079
0.000101077
0.000104463
0.000104458
0.000104373
0.000104338
0.000104278
0.000104248
0.000104195
0.000104171
0.000104126
0.000104105
0.000104068
0.000104052
0.000104023
0.000104011
0.00010399
0.000103982
0.00010397
0.000103966
0.000103962
0.00010396
0.000106239
0.000106234
0.000106143
0.000106108
0.000106045
0.000106014
0.000105961
0.000105933
0.000105889
0.000105865
0.00010583
0.00010581
0.000105783
0.000105768
0.000105749
0.000105739
0.000105728
0.000105723
0.000105719
0.000105717
0.000107484
0.000107479
0.000107387
0.00010735
0.000107287
0.000107254
0.000107199
0.000107172
0.000107125
0.000107103
0.000107064
0.000107046
0.000107016
0.000107003
0.000106981
0.000106973
0.00010696
0.000106955
0.000106951
0.00010695
0.000108511
0.000108506
0.000108413
0.000108376
0.00010831
0.000108279
0.00010822
0.000108195
0.000108144
0.000108124
0.000108082
0.000108066
0.000108034
0.000108022
0.000107999
0.000107991
0.000107977
0.000107973
0.000107968
0.000107967
0.000109483
0.000109478
0.000109381
0.000109344
0.000109277
0.000109244
0.000109186
0.000109158
0.000109109
0.000109086
0.000109046
0.000109028
0.000108997
0.000108983
0.000108961
0.000108952
0.000108938
0.000108934
0.000108929
0.000108928
0.000110487
0.000110482
0.000110382
0.000110346
0.000110279
0.000110243
0.000110187
0.000110155
0.000110108
0.000110082
0.000110043
0.000110023
0.000109993
0.000109977
0.000109956
0.000109945
0.000109933
0.000109927
0.000109923
0.000109921
0.000111581
0.000111575
0.000111477
0.000111437
0.000111369
0.000111334
0.000111273
0.000111245
0.000111193
0.000111171
0.000111128
0.000111109
0.000111077
0.000111063
0.000111039
0.00011103
0.000111016
0.000111011
0.000111006
0.000111005
0.000112813
0.000112807
0.000112705
0.000112665
0.000112594
0.000112558
0.000112498
0.000112467
0.000112417
0.00011239
0.000112349
0.000112329
0.000112296
0.000112281
0.000112258
0.000112248
0.000112235
0.000112229
0.000112224
0.000112223
0.000114225
0.000114219
0.000114115
0.000114074
0.000114002
0.000113966
0.000113902
0.000113872
0.000113818
0.000113794
0.000113749
0.00011373
0.000113695
0.000113681
0.000113656
0.000113647
0.000113632
0.000113627
0.000113622
0.00011362
0.000115876
0.00011587
0.000115764
0.00011572
0.000115646
0.000115609
0.000115542
0.000115513
0.000115457
0.000115432
0.000115386
0.000115367
0.00011533
0.000115316
0.00011529
0.000115281
0.000115265
0.00011526
0.000115255
0.000115253
0.000117822
0.000117816
0.000117706
0.000117662
0.000117583
0.000117546
0.000117477
0.000117447
0.000117387
0.000117363
0.000117314
0.000117296
0.000117257
0.000117243
0.000117216
0.000117206
0.00011719
0.000117185
0.00011718
0.000117178
0.000120032
0.000120025
0.00011991
0.000119865
0.000119784
0.000119745
0.000119675
0.000119641
0.000119583
0.000119554
0.000119507
0.000119484
0.000119448
0.00011943
0.000119404
0.000119393
0.000119377
0.000119371
0.000119366
0.000119364
0.000122153
0.000122151
0.000122036
0.000121991
0.000121913
0.000121872
0.000121805
0.000121769
0.000121713
0.000121683
0.000121636
0.000121612
0.000121575
0.000121557
0.000121532
0.000121519
0.000121504
0.000121497
0.000121492
0.00012149
0.000122888
0.000122885
0.000122883
0.000122881
0.00012288
0.000122879
0.000122877
0.000122876
0.000122876
0.000122875
0.000122875
0.000122874
0.000122874
0.000122874
0.000122873
0.000122873
0.000122873
0.000122873
0.000122873
0.000122873
)
;

boundaryField
{
    movingWall
    {
        type            kqRWallFunction;
        value           nonuniform List<scalar> 
20
(
0.000122888
0.000122885
0.000122883
0.000122881
0.00012288
0.000122879
0.000122877
0.000122876
0.000122876
0.000122875
0.000122875
0.000122874
0.000122874
0.000122874
0.000122873
0.000122873
0.000122873
0.000122873
0.000122873
0.000122873
)
;
    }
    fixedWalls
    {
        type            kqRWallFunction;
        value           nonuniform List<scalar> 
60
(
4.02494e-05
5.44722e-05
7.29541e-05
8.736e-05
9.64019e-05
0.000101551
0.000104463
0.000106239
0.000107484
0.000108511
0.000109483
0.000110487
0.000111581
0.000112813
0.000114225
0.000115876
0.000117822
0.000120032
0.000122153
0.000122888
4.02445e-05
5.43414e-05
7.27185e-05
8.70165e-05
9.59781e-05
0.000101077
0.00010396
0.000105717
0.00010695
0.000107967
0.000108928
0.000109921
0.000111005
0.000112223
0.00011362
0.000115253
0.000117178
0.000119364
0.00012149
0.000122873
4.02494e-05
4.02488e-05
4.02482e-05
4.02477e-05
4.02472e-05
4.02468e-05
4.02464e-05
4.02461e-05
4.02458e-05
4.02455e-05
4.02453e-05
4.02451e-05
4.02449e-05
4.02448e-05
4.02447e-05
4.02446e-05
4.02445e-05
4.02445e-05
4.02445e-05
4.02445e-05
)
;
    }
    frontAndBack
    {
        type            empty;
    }
}


// ************************************************************************* //
