/*--------------------------------*- C++ -*----------------------------------*\
| =========                 |                                                 |
| \\      /  F ield         | OpenFOAM: The Open Source CFD Toolbox           |
|  \\    /   O peration     | Version:  2506                                  |
|   \\  /    A nd           | Website:  www.openfoam.com                      |
|    \\/     M anipulation  |                                                 |
\*---------------------------------------------------------------------------*/
FoamFile
{
    version     2.0;
    format      ascii;
    arch        "LSB;label=32;scalar=64";
    class       volVectorField;
    location    "3.5";
    object      LambVectorField;
}
// * * * * * * * * * * * * * * * * * * * * * * * * * * * * * * * * * * * * * //

dimensions      [0 1 -2 0 0 0 0];

internalField   nonuniform List<vector> 
400
(
(-4.34295e-12 -1.92705e-05 0)
(-1.11257e-12 2.16912e-05 -0)
(-6.09419e-14 -5.01732e-06 0)
(-3.27454e-15 1.18237e-06 -0)
(-1.76097e-16 -2.74426e-07 0)
(-9.50156e-18 6.36276e-08 -0)
(-5.10171e-19 -1.52232e-08 0)
(-2.62899e-20 3.2932e-09 -0)
(-1.5595e-21 -9.33207e-10 0)
(-4.19232e-23 9.27757e-11 -0)
(-8.22494e-24 -1.26168e-10 0)
(2.19692e-24 -6.62491e-11 -0)
(5.14419e-25 -7.49225e-11 -0)
(1.26582e-24 -6.65323e-11 -0)
(1.63652e-24 -5.82099e-11 -0)
(1.59624e-24 -4.61433e-11 -0)
(1.02273e-24 -3.38899e-11 -0)
(5.37302e-25 -2.46837e-11 -0)
(3.1985e-25 -1.71841e-11 -0)
(2.08705e-25 -8.07725e-12 -0)
(-4.94828e-12 2.14659e-05 -0)
(-1.18058e-12 -2.25258e-05 0)
(-6.5355e-14 5.27509e-06 -0)
(-3.47892e-15 -1.23497e-06 0)
(-1.88658e-16 2.89029e-07 -0)
(-1.00994e-17 -6.76288e-08 0)
(-5.49019e-19 1.58163e-08 -0)
(-2.69755e-20 -3.69611e-09 0)
(-1.7634e-21 8.70958e-10 -0)
(-5.07661e-23 -1.92002e-10 0)
(-8.27015e-24 5.98204e-11 -0)
(-8.00989e-27 2.81253e-12 -0)
(-4.47972e-25 1.7431e-11 -0)
(-6.47409e-25 1.43371e-11 -0)
(-9.79812e-25 1.24324e-11 -0)
(-6.30005e-25 6.14454e-12 -0)
(1.41535e-25 -1.51593e-12 -0)
(9.3325e-26 -1.66057e-12 -0)
(-1.77036e-25 2.97981e-12 -0)
(1.02339e-24 -1.33755e-11 -0)
(-5.34222e-12 -2.21773e-05 0)
(-1.28672e-12 2.34708e-05 -0)
(-7.12882e-14 -5.49386e-06 0)
(-3.80342e-15 1.2855e-06 -0)
(-2.05076e-16 -3.00771e-07 0)
(-1.13192e-17 7.03212e-08 -0)
(-5.66724e-19 -1.64617e-08 0)
(-3.4815e-20 3.84023e-09 -0)
(-1.34741e-21 -8.95673e-10 0)
(-1.25213e-22 2.20538e-10 -0)
(-1.80019e-24 -3.245e-11 0)
(-8.21554e-25 3.1417e-11 -0)
(-1.96017e-25 1.98605e-11 -0)
(-1.47789e-24 2.38935e-11 -0)
(-2.28417e-24 1.93759e-11 -0)
(-1.54751e-24 9.74214e-12 -0)
(3.80181e-25 -2.59577e-12 -0)
(2.47938e-25 -2.72017e-12 -0)
(-4.7054e-25 4.96007e-12 -0)
(2.67504e-24 -2.15828e-11 -0)
(-5.87782e-12 2.30059e-05 -0)
(-1.4468e-12 -2.48087e-05 0)
(-8.06002e-14 5.81921e-06 -0)
(-4.27905e-15 -1.36423e-06 0)
(-2.3636e-16 3.19622e-07 -0)
(-1.24492e-17 -7.48887e-08 0)
(-6.99495e-19 1.7509e-08 -0)
(-3.34102e-20 -4.10848e-09 0)
(-2.2469e-21 9.63634e-10 -0)
(-7.77486e-23 -2.09991e-10 0)
(-5.95163e-24 7.49075e-11 -0)
(9.85695e-25 1.46419e-11 0)
(3.76303e-25 3.3308e-11 0)
(-1.74695e-24 3.09147e-11 -0)
(-3.81405e-24 2.67582e-11 -0)
(-2.71534e-24 1.33628e-11 -0)
(6.23675e-25 -3.25975e-12 -0)
(3.80888e-25 -3.2877e-12 -0)
(-8.9959e-25 7.15937e-12 -0)
(4.81568e-24 -2.88162e-11 -0)
(-6.29805e-12 -2.32428e-05 0)
(-1.63843e-12 2.61255e-05 -0)
(-9.13761e-14 -6.16108e-06 0)
(-4.9626e-15 1.45109e-06 -0)
(-2.71244e-16 -3.41475e-07 0)
(-1.49895e-17 8.02317e-08 -0)
(-7.75955e-19 -1.88762e-08 0)
(-4.56713e-20 4.41929e-09 -0)
(-2.16234e-21 -1.03363e-09 0)
(-1.14672e-22 2.61577e-10 -0)
(-7.58366e-24 -2.95897e-11 0)
(4.92778e-24 4.64617e-11 0)
(2.67826e-24 3.42585e-11 0)
(-1.40118e-24 3.9576e-11 -0)
(-4.82514e-24 3.24449e-11 -0)
(-3.85202e-24 1.6707e-11 -0)
(8.12436e-25 -3.68202e-12 -0)
(4.72514e-25 -3.5091e-12 -0)
(-1.40415e-24 9.40885e-12 -0)
(7.09803e-24 -3.47351e-11 -0)
(-6.54395e-12 2.3074e-05 -0)
(-1.79979e-12 -2.70882e-05 0)
(-1.00798e-13 6.40962e-06 -0)
(-5.56823e-15 -1.51651e-06 0)
(-3.10011e-16 3.58736e-07 -0)
(-1.7057e-17 -8.49044e-08 0)
(-9.45132e-19 2.00439e-08 -0)
(-5.15028e-20 -4.74934e-09 0)
(-2.61447e-21 1.12574e-09 -0)
(-2.11271e-22 -2.42694e-10 0)
(1.66148e-23 9.4229e-11 0)
(6.61962e-24 2.36825e-11 0)
(6.79488e-24 4.67882e-11 0)
(4.4353e-25 4.41672e-11 0)
(-5.25006e-24 3.80766e-11 -0)
(-4.69266e-24 1.93931e-11 -0)
(9.12786e-25 -3.8304e-12 -0)
(4.93669e-25 -3.46645e-12 -0)
(-1.96628e-24 1.18673e-11 -0)
(9.28223e-24 -3.95334e-11 -0)
(-6.80987e-12 -2.30511e-05 0)
(-1.95228e-12 2.79952e-05 -0)
(-1.09532e-13 -6.63144e-06 0)
(-6.11621e-15 1.57076e-06 -0)
(-3.42268e-16 -3.72194e-07 0)
(-1.91001e-17 8.81362e-08 -0)
(-1.07081e-18 -2.09154e-08 0)
(-5.70572e-20 4.94196e-09 -0)
(-3.9015e-21 -1.16481e-09 0)
(-2.85113e-23 3.01917e-10 -0)
(-1.96611e-23 -3.01278e-11 0)
(2.05103e-23 5.81128e-11 0)
(1.12956e-23 4.4256e-11 0)
(3.28373e-24 5.06138e-11 0)
(-4.60922e-24 4.1918e-11 -0)
(-5.20769e-24 2.20044e-11 -0)
(8.63025e-25 -3.59168e-12 -0)
(4.17423e-25 -2.92427e-12 -0)
(-2.4904e-24 1.42757e-11 -0)
(1.09934e-23 -4.26341e-11 -0)
(-7.15491e-12 2.33163e-05 -0)
(-2.10737e-12 -2.89478e-05 0)
(-1.1838e-13 6.8643e-06 -0)
(-6.65681e-15 -1.62755e-06 0)
(-3.73425e-16 3.85822e-07 -0)
(-2.10812e-17 -9.15259e-08 0)
(-1.15845e-18 2.16691e-08 -0)
(-7.09424e-20 -5.15145e-09 0)
(-2.63985e-21 1.23008e-09 -0)
(-4.06531e-22 -2.63111e-10 0)
(5.66658e-23 1.07407e-10 0)
(1.68217e-23 2.94021e-11 0)
(1.87692e-23 5.51465e-11 0)
(7.14598e-24 5.2287e-11 0)
(-3.22262e-24 4.53152e-11 -0)
(-5.1707e-24 2.37975e-11 -0)
(7.08228e-25 -3.06196e-12 -0)
(2.70419e-25 -2.01691e-12 -0)
(-2.90555e-24 1.65189e-11 -0)
(1.2102e-23 -4.42903e-11 -0)
(-7.54485e-12 -2.37284e-05 0)
(-2.26244e-12 2.99023e-05 -0)
(-1.27264e-13 -7.09536e-06 0)
(-7.17936e-15 1.6834e-06 -0)
(-4.05559e-16 -3.99518e-07 0)
(-2.26683e-17 9.47679e-08 -0)
(-1.32274e-18 -2.25249e-08 0)
(-6.55371e-20 5.33585e-09 -0)
(-5.59634e-21 -1.25654e-09 0)
(9.8997e-23 3.29301e-10 0)
(-3.27678e-23 -3.07893e-11 0)
(4.04192e-23 6.4553e-11 0)
(2.27105e-23 4.92621e-11 0)
(1.14208e-23 5.62109e-11 0)
(-1.05279e-24 4.68086e-11 -0)
(-4.73881e-24 2.52887e-11 -0)
(5.07004e-25 -2.40436e-12 -0)
(1.05358e-25 -8.86163e-13 -0)
(-3.1882e-24 1.86623e-11 -0)
(1.25607e-23 -4.46807e-11 -0)
(-7.96641e-12 2.42259e-05 -0)
(-2.42101e-12 -3.08621e-05 0)
(-1.36225e-13 7.32788e-06 -0)
(-7.72111e-15 -1.73976e-06 0)
(-4.34593e-16 4.13009e-07 -0)
(-2.48255e-17 -9.81139e-08 0)
(-1.35225e-18 2.32707e-08 -0)
(-8.81036e-20 -5.53565e-09 0)
(-2.55213e-21 1.327e-09 -0)
(-5.90901e-22 -2.82611e-10 0)
(9.79668e-23 1.15807e-10 0)
(2.56676e-23 3.06719e-11 0)
(3.08538e-23 5.80943e-11 0)
(1.52086e-23 5.4896e-11 0)
(1.31476e-24 4.79761e-11 0)
(-3.8701e-24 2.58712e-11 -0)
(3.03965e-25 -1.65801e-12 -0)
(-2.53951e-26 2.57588e-13 -0)
(-3.2932e-24 2.06322e-11 -0)
(1.23338e-23 -4.37148e-11 -0)
(-8.39483e-12 -2.47516e-05 0)
(-2.57563e-12 3.17831e-05 -0)
(-1.45074e-13 -7.55029e-06 0)
(-8.22834e-15 1.7934e-06 -0)
(-4.66723e-16 -4.26098e-07 0)
(-2.61099e-17 1.01196e-07 -0)
(-1.5515e-18 -2.40703e-08 0)
(-7.37997e-20 5.71354e-09 -0)
(-7.04575e-21 -1.34389e-09 0)
(2.07917e-22 3.52867e-10 0)
(-4.79261e-23 -3.50269e-11 0)
(5.54472e-23 6.61568e-11 0)
(3.08343e-23 4.89651e-11 0)
(1.87251e-23 5.63202e-11 0)
(3.70897e-24 4.71185e-11 0)
(-2.84938e-24 2.61666e-11 -0)
(1.30293e-25 -8.64609e-13 -0)
(-1.11203e-25 1.49815e-12 -0)
(-3.20785e-24 2.2236e-11 -0)
(1.152e-23 -4.16185e-11 -0)
(-8.82407e-12 2.52813e-05 -0)
(-2.72884e-12 -3.26715e-05 0)
(-1.537e-13 7.76456e-06 -0)
(-8.74879e-15 -1.8451e-06 0)
(-4.93404e-16 4.38425e-07 -0)
(-2.83325e-17 -1.04235e-07 0)
(-1.53828e-18 2.47532e-08 -0)
(-1.02906e-19 -5.88826e-09 0)
(-2.62358e-21 1.41461e-09 -0)
(-7.37933e-22 -3.03173e-10 0)
(1.24126e-22 1.19576e-10 0)
(2.7437e-23 2.73033e-11 0)
(3.6718e-23 5.55777e-11 0)
(2.01442e-23 5.20821e-11 0)
(5.61209e-24 4.59175e-11 0)
(-1.69545e-24 2.53143e-11 -0)
(4.39066e-26 -3.79347e-13 -0)
(-1.17827e-25 2.38714e-12 -0)
(-2.92602e-24 2.35144e-11 -0)
(1.02572e-23 -3.85899e-11 -0)
(-9.23762e-12 -2.57987e-05 0)
(-2.87192e-12 3.34894e-05 -0)
(-1.61887e-13 -7.96132e-06 0)
(-9.20965e-15 1.89236e-06 -0)
(-5.2346e-16 -4.49901e-07 0)
(-2.93124e-17 1.06931e-07 -0)
(-1.75456e-18 -2.54425e-08 0)
(-8.23963e-20 6.04807e-09 -0)
(-8.13805e-21 -1.42275e-09 0)
(2.57456e-22 3.7059e-10 0)
(-6.48982e-23 -4.29667e-11 0)
(5.84982e-23 6.26429e-11 0)
(3.09605e-23 4.32602e-11 0)
(2.101e-23 5.08874e-11 0)
(6.80795e-24 4.26447e-11 0)
(-7.08576e-25 2.39653e-11 -0)
(1.00203e-26 -1.22744e-13 -0)
(-7.46108e-26 3.25552e-12 -0)
(-2.50707e-24 2.41948e-11 -0)
(8.69713e-24 -3.487e-11 -0)
(-9.62908e-12 2.62793e-05 -0)
(-3.00816e-12 -3.42468e-05 0)
(-1.69529e-13 8.14329e-06 -0)
(-9.6723e-15 -1.93609e-06 0)
(-5.46142e-16 4.60299e-07 -0)
(-3.14313e-17 -1.0948e-07 0)
(-1.70756e-18 2.60204e-08 -0)
(-1.1474e-19 -6.18885e-09 0)
(-2.9392e-21 1.48696e-09 -0)
(-8.25922e-22 -3.23921e-10 0)
(1.25476e-22 1.18213e-10 0)
(2.00906e-23 1.93595e-11 0)
(3.32105e-23 4.79967e-11 0)
(1.90157e-23 4.40147e-11 0)
(7.14358e-24 3.91653e-11 0)
(8.17415e-26 2.15957e-11 0)
(1.6991e-26 -3.4288e-13 -0)
(-5.03139e-27 3.44678e-12 -0)
(-1.95802e-24 2.41612e-11 -0)
(6.9436e-24 -3.04325e-11 -0)
(-9.99295e-12 -2.67419e-05 0)
(-3.12872e-12 3.49152e-05 -0)
(-1.7643e-13 -8.30354e-06 0)
(-1.00529e-14 1.97446e-06 -0)
(-5.71971e-16 -4.69578e-07 0)
(-3.20556e-17 1.11659e-07 -0)
(-1.92104e-18 -2.65695e-08 0)
(-9.08939e-20 6.32074e-09 -0)
(-8.76798e-21 -1.48965e-09 0)
(2.26205e-22 3.81123e-10 0)
(-7.93219e-23 -5.41814e-11 0)
(4.83392e-23 5.46779e-11 0)
(2.28908e-23 3.31708e-11 0)
(1.69882e-23 4.07548e-11 0)
(6.61653e-24 3.39799e-11 0)
(5.25519e-25 1.91525e-11 0)
(8.79354e-27 -3.63641e-13 -0)
(6.35366e-26 3.57075e-12 0)
(-1.40745e-24 2.29808e-11 -0)
(5.2363e-24 -2.58894e-11 -0)
(-1.03221e-11 2.71579e-05 -0)
(-3.23761e-12 -3.55065e-05 0)
(-1.82503e-13 8.44524e-06 -0)
(-1.04238e-14 -2.00842e-06 0)
(-5.8878e-16 4.77641e-07 -0)
(-3.39096e-17 -1.13625e-07 0)
(-1.84688e-18 2.70195e-08 -0)
(-1.22647e-19 -6.42594e-09 0)
(-3.5377e-21 1.54154e-09 -0)
(-8.29336e-22 -3.43408e-10 0)
(1.01156e-22 1.13097e-10 0)
(7.9914e-24 8.75578e-12 0)
(2.23627e-23 3.70507e-11 0)
(1.26871e-23 3.23849e-11 0)
(5.52852e-24 2.9433e-11 0)
(6.86641e-25 1.61917e-11 0)
(8.71e-28 -1.84865e-13 -0)
(9.57263e-26 3.55749e-12 0)
(-9.04751e-25 2.09104e-11 -0)
(3.6484e-24 -2.11911e-11 -0)
(-1.05845e-11 -2.7474e-05 0)
(-3.32564e-12 3.59775e-05 -0)
(-1.87562e-13 -8.55735e-06 0)
(-1.0692e-14 2.03507e-06 -0)
(-6.08735e-16 -4.84029e-07 0)
(-3.41271e-17 1.15117e-07 -0)
(-2.03738e-18 -2.73875e-08 0)
(-9.92856e-20 6.5183e-09 -0)
(-8.74298e-21 -1.53904e-09 0)
(9.16843e-23 3.86154e-10 0)
(-7.82681e-23 -6.56723e-11 0)
(2.97162e-23 4.50454e-11 0)
(1.13996e-23 2.15117e-11 0)
(9.35003e-24 2.89102e-11 0)
(3.93324e-24 2.4006e-11 0)
(6.01654e-25 1.39139e-11 0)
(4.13243e-27 6.58716e-13 0)
(1.40728e-25 4.04895e-12 0)
(-5.08268e-25 1.81642e-11 -0)
(2.3233e-24 -1.66465e-11 -0)
(-1.08469e-11 2.78524e-05 -0)
(-3.40088e-12 -3.63907e-05 0)
(-1.91683e-13 8.65629e-06 -0)
(-1.09578e-14 -2.05874e-06 0)
(-6.18766e-16 4.89646e-07 -0)
(-3.56285e-17 -1.16477e-07 0)
(-1.95722e-18 2.77034e-08 -0)
(-1.25273e-19 -6.58875e-09 0)
(-4.61668e-21 1.57537e-09 -0)
(-7.16178e-22 -3.61092e-10 0)
(5.27883e-23 1.0408e-10 0)
(-2.80444e-24 -4.50935e-12 0)
(9.10839e-24 2.3182e-11 0)
(4.79779e-24 1.80215e-11 0)
(2.35662e-24 1.7058e-11 0)
(4.50154e-25 8.98333e-12 0)
(-1.59224e-26 -7.70192e-13 0)
(9.97725e-26 2.70087e-12 0)
(-1.85974e-25 1.51216e-11 -0)
(1.20759e-24 -1.14648e-11 -0)
(-1.09963e-11 -2.80301e-05 0)
(-3.45201e-12 3.66786e-05 -0)
(-1.94829e-13 -8.73194e-06 0)
(-1.11049e-14 2.07845e-06 -0)
(-6.32253e-16 -4.94764e-07 0)
(-3.55246e-17 1.17782e-07 -0)
(-2.08573e-18 -2.80428e-08 0)
(-1.08587e-19 6.67676e-09 -0)
(-7.90492e-21 -1.58763e-09 0)
(-1.42212e-22 3.82618e-10 -0)
(-6.02642e-23 -8.48807e-11 0)
(7.76262e-24 2.65846e-11 0)
(1.44244e-25 5.4604e-13 0)
(1.15623e-24 7.36571e-12 0)
(3.71847e-25 4.37116e-12 0)
(-8.34971e-27 -2.93753e-13 0)
(-8.48328e-26 -7.00425e-12 0)
(-8.86057e-26 -2.56837e-12 0)
(7.60752e-26 1.10325e-11 0)
(3.51027e-25 -5.18544e-12 -0)
(-1.1422e-11 2.89473e-05 -0)
(-3.52361e-12 -3.70298e-05 0)
(-2.00736e-13 8.89753e-06 -0)
(-1.1502e-14 -2.11321e-06 0)
(-6.62503e-16 5.09655e-07 -0)
(-3.77393e-17 -1.20718e-07 0)
(-2.22438e-18 2.97569e-08 -0)
(-1.21376e-19 -6.58769e-09 0)
(-8.17009e-21 1.99195e-09 -0)
(-2.44712e-22 -1.95766e-10 0)
(-2.7591e-23 2.38644e-10 -0)
(1.0175e-23 6.29459e-11 0)
(2.84855e-24 5.41269e-11 0)
(8.79467e-25 2.02229e-11 0)
(6.69235e-26 4.32666e-12 0)
(-8.75983e-28 -3.94662e-12 0)
(2.84208e-27 -4.50054e-12 -0)
(-9.85986e-26 -6.75394e-12 0)
(-8.64608e-26 -9.71136e-12 0)
(1.43579e-25 -6.09885e-12 -0)
)
;

boundaryField
{
    movingWall
    {
        type            calculated;
        value           nonuniform List<vector> 
20
(
(0 3.34506e-05 -0)
(0 -3.79977e-05 -0)
(0 9.33444e-06 -0)
(0 -2.20465e-06 -0)
(0 5.45391e-07 -0)
(0 -1.29099e-07 -0)
(0 3.30489e-08 -0)
(0 -6.94167e-09 -0)
(0 2.53716e-09 -0)
(0 -3.67492e-11 -0)
(0 4.0771e-10 -0)
(0 1.53439e-10 -0)
(0 1.11914e-10 -0)
(0 4.83025e-11 -0)
(0 1.52513e-11 -0)
(0 3.66469e-13 -0)
(0 9.60409e-13 -0)
(0 -8.05888e-12 -0)
(0 -2.39415e-11 -0)
(0 -1.19444e-11 -0)
)
;
    }
    fixedWalls
    {
        type            calculated;
        value           nonuniform List<vector> 
60
(
(0 -9.201e-05 -0)
(0 9.58624e-05 -0)
(0 -9.99255e-05 -0)
(0 0.000105485 -0)
(0 -0.000110805 -0)
(0 0.0001148 -0)
(0 -0.000118652 -0)
(0 0.000122655 -0)
(0 -0.000126685 -0)
(0 0.000130722 -0)
(0 -0.000134604 -0)
(0 0.000138344 -0)
(0 -0.000141794 -0)
(0 0.000144987 -0)
(0 -0.000147807 -0)
(0 0.0001503 -0)
(0 -0.000152294 -0)
(0 0.000154031 -0)
(0 -0.000155132 -0)
(0 0.000156837 -0)
(0 -1.39675e-11 -0)
(0 -3.0388e-11 -0)
(0 -4.92793e-11 -0)
(0 -6.63862e-11 -0)
(0 -8.11156e-11 -0)
(0 -9.34029e-11 -0)
(0 -1.02545e-10 -0)
(0 -1.08674e-10 -0)
(0 -1.11934e-10 -0)
(0 -1.12396e-10 -0)
(0 -1.10232e-10 -0)
(0 -1.05887e-10 -0)
(0 -9.93327e-11 -0)
(0 -9.07777e-11 -0)
(0 -8.04419e-11 -0)
(0 -6.85143e-11 -0)
(0 -5.57185e-11 -0)
(0 -4.18341e-11 -0)
(0 -2.61834e-11 -0)
(0 -1.40517e-11 -0)
(0 -1.42036e-05 -0)
(0 2.07819e-05 -0)
(0 -4.61142e-06 -0)
(0 1.11202e-06 -0)
(0 -2.48888e-07 -0)
(0 5.67014e-08 -0)
(0 -1.38852e-08 -0)
(0 2.58863e-09 -0)
(0 -9.5305e-10 -0)
(0 -5.54125e-11 -0)
(0 -2.13379e-10 -0)
(0 -1.57019e-10 -0)
(0 -1.5649e-10 -0)
(0 -1.41938e-10 -0)
(0 -1.22433e-10 -0)
(0 -9.55393e-11 -0)
(0 -6.70078e-11 -0)
(0 -4.8674e-11 -0)
(0 -3.60082e-11 -0)
(0 -1.19059e-11 -0)
)
;
    }
    frontAndBack
    {
        type            empty;
    }
}


// ************************************************************************* //
