/*--------------------------------*- C++ -*----------------------------------*\
| =========                 |                                                 |
| \\      /  F ield         | OpenFOAM: The Open Source CFD Toolbox           |
|  \\    /   O peration     | Version:  2506                                  |
|   \\  /    A nd           | Website:  www.openfoam.com                      |
|    \\/     M anipulation  |                                                 |
\*---------------------------------------------------------------------------*/
FoamFile
{
    version     2.0;
    format      ascii;
    arch        "LSB;label=32;scalar=64";
    class       volScalarField;
    location    "3.5";
    object      Lambda2Field;
}
// * * * * * * * * * * * * * * * * * * * * * * * * * * * * * * * * * * * * * //

dimensions      [0 0 -2 0 0 0 0];

internalField   nonuniform List<scalar> 
400
(
-3.19846e-11
-7.3204e-12
-7.85594e-13
-3.34755e-14
-3.17857e-15
-1.60526e-16
-1.461e-17
-3.3459e-19
-1.26616e-19
1.09405e-20
-3.36177e-21
5.42254e-22
-7.82195e-23
1.87076e-22
2.07371e-22
1.97595e-22
1.03012e-22
2.63498e-23
6.80406e-23
8.86113e-23
-6.04353e-11
-9.60445e-12
-1.35212e-12
-2.79973e-14
-4.51841e-15
-1.4862e-16
-1.00807e-17
-3.5502e-19
-4.40271e-20
0
-5.38736e-22
1.58822e-22
-5.57573e-23
-1.20555e-23
4.218e-23
1.47567e-22
1.30818e-22
5.40265e-23
5.62173e-23
9.91933e-23
-5.34221e-11
0
-9.91094e-13
0
-1.77102e-15
0
0
0
0
0
1.21047e-21
0
-4.44733e-23
-1.39721e-22
-3.37622e-23
8.16744e-23
1.11202e-22
3.85533e-23
3.83664e-23
8.86172e-23
-3.93286e-11
0
-4.81233e-13
0
0
0
0
0
0
3.59822e-21
0
2.16787e-22
-1.16232e-22
-2.31929e-22
-1.61025e-22
9.0399e-24
8.73695e-23
4.04667e-23
1.91415e-23
7.81385e-23
-1.1254e-11
0
0
0
0
0
0
0
0
0
2.00747e-21
0
-1.05147e-22
-3.26367e-22
-2.51899e-22
-4.93909e-23
7.19062e-23
2.87614e-23
0
6.78455e-23
0
0
0
0
0
0
0
0
0
2.97788e-21
0
0
0
-3.48342e-22
-3.09446e-22
-9.35318e-23
6.11768e-23
2.82085e-23
-1.53123e-24
4.65914e-23
0
0
0
0
0
0
0
0
0
0
1.8874e-21
1.2597e-22
-6.43099e-23
-3.04439e-22
-3.10148e-22
-1.10827e-22
5.49693e-23
2.47852e-23
-2.58737e-23
4.05621e-23
7.19047e-12
7.55043e-13
6.53877e-14
1.77773e-15
1.50473e-16
0
2.81211e-19
0
3.08105e-21
2.69851e-21
7.11028e-22
0
0
-2.67116e-22
-2.74628e-22
-9.03314e-23
5.24044e-23
2.10777e-23
-3.33885e-23
3.12002e-23
1.69982e-11
3.3429e-12
3.3402e-13
1.59467e-14
1.29559e-15
8.85177e-17
3.99869e-18
5.40526e-19
2.71352e-21
6.24933e-21
1.07095e-21
4.45695e-22
0
-1.18209e-22
-2.05706e-22
-7.22388e-23
5.34568e-23
2.50726e-23
-3.69253e-23
2.40672e-23
2.48593e-11
5.33783e-12
5.55905e-13
2.56038e-14
2.3621e-15
1.32892e-16
1.07731e-17
4.70191e-19
8.29314e-20
0
2.12746e-21
3.19564e-23
1.66269e-22
-6.08205e-23
-1.24225e-22
-1.71692e-23
5.37651e-23
1.68148e-23
-3.47311e-23
2.05422e-23
3.14656e-11
7.03334e-12
7.38256e-13
3.44563e-14
3.04688e-15
1.9863e-16
1.09331e-17
1.2554e-18
9.08918e-21
1.45781e-20
1.16704e-22
8.50932e-22
1.3168e-22
5.32072e-23
-4.16946e-23
0
5.4703e-23
2.56121e-23
-2.77061e-23
2.32134e-23
3.7291e-11
8.53845e-12
9.07827e-13
4.16167e-14
3.87154e-15
2.24892e-16
1.75113e-17
8.5362e-19
1.37112e-19
0
3.53735e-21
4.85441e-22
4.59237e-22
1.33056e-22
3.84739e-23
2.68078e-23
5.0127e-23
1.3915e-23
-2.39611e-23
2.44226e-23
4.20201e-11
9.76942e-12
1.04284e-12
4.80043e-14
4.3371e-15
2.78433e-16
1.59451e-17
1.75754e-18
1.31502e-20
2.13335e-20
0
1.34855e-21
4.62724e-22
2.8272e-22
1.0163e-22
5.39952e-23
4.41699e-23
2.06193e-23
-1.61623e-23
2.94757e-23
4.6405e-11
1.09551e-11
1.17563e-12
5.36869e-14
5.0071e-15
2.93847e-16
2.25396e-17
1.12501e-18
1.79448e-19
0
5.00915e-21
6.7477e-22
7.68367e-22
3.53719e-22
1.67999e-22
6.95895e-23
3.34649e-23
7.31613e-24
-1.58395e-23
3.73257e-23
4.91776e-11
1.16807e-11
1.25903e-12
5.74423e-14
5.23913e-15
3.35395e-16
1.91894e-17
2.13426e-18
1.258e-20
2.71851e-20
0
1.77398e-21
7.11298e-22
4.42381e-22
1.93211e-22
7.48431e-23
2.13892e-23
8.5498e-24
-7.20494e-24
4.34988e-23
5.13656e-11
1.22823e-11
1.32986e-12
6.00283e-14
5.65014e-15
3.27857e-16
2.56127e-17
1.1958e-18
2.09773e-19
0
5.97774e-21
1.09471e-21
8.95411e-22
4.69282e-22
1.99281e-22
6.14715e-23
1.19639e-23
1.44346e-24
-8.90082e-24
4.6891e-23
5.38162e-11
1.29941e-11
1.40579e-12
6.4195e-14
5.81617e-15
3.80118e-16
2.07182e-17
2.42359e-18
1.62416e-20
3.0031e-20
5.09387e-22
1.72716e-21
8.51218e-22
4.31238e-22
1.37075e-22
2.96359e-23
6.60486e-24
-1.12901e-24
-3.16656e-24
4.64871e-23
5.21917e-11
1.24899e-11
1.38434e-12
6.11951e-14
6.03622e-15
3.37636e-16
2.8217e-17
1.25072e-18
2.22244e-19
0
4.82986e-21
1.53415e-21
1.01602e-21
4.6692e-22
1.60468e-22
3.24807e-23
3.08932e-24
1.96681e-24
-5.61406e-25
5.51638e-23
5.35973e-11
1.18832e-11
1.29141e-12
5.27112e-14
4.73296e-15
3.09616e-16
1.42078e-17
1.82843e-18
1.61681e-20
1.91163e-20
2.65024e-21
2.2321e-21
1.18754e-21
5.90063e-22
2.2138e-22
5.62191e-23
0
6.60351e-24
-3.81481e-24
7.23323e-23
2.98469e-11
6.41166e-12
6.62665e-13
2.75102e-14
1.73494e-15
2.2135e-16
-7.10479e-18
3.41918e-18
-4.6373e-19
8.85603e-20
-1.0595e-20
3.40001e-21
4.88649e-22
3.40516e-22
1.01075e-22
1.33015e-23
-2.26107e-24
1.85752e-23
5.2248e-23
7.6456e-23
)
;

boundaryField
{
    movingWall
    {
        type            calculated;
        value           nonuniform List<scalar> 
20
(
0
0
0
0
0
0
0
1.36489e-18
0
1.61184e-19
-3.0232e-20
5.33303e-21
-1.94153e-22
1.36919e-22
0
2.00974e-24
3.51146e-24
2.73248e-23
1.06523e-22
7.33332e-23
)
;
    }
    fixedWalls
    {
        type            calculated;
        value           nonuniform List<scalar> 
60
(
-1.57666e-10
-2.23483e-10
-2.63576e-11
0
0
0
0
1.61399e-11
6.87037e-11
1.11481e-10
1.48016e-10
1.80873e-10
2.08149e-10
2.33756e-10
2.50803e-10
2.64603e-10
2.79481e-10
2.72565e-10
2.80931e-10
1.57107e-10
1.81229e-23
5.58692e-23
6.03464e-23
6.31139e-23
7.48205e-23
5.97585e-23
6.86043e-23
6.90924e-23
5.79421e-23
5.21894e-23
5.66894e-23
5.36079e-23
5.52653e-23
6.62707e-23
6.66323e-23
6.35661e-23
5.07233e-23
6.05563e-23
8.88299e-23
3.95947e-23
5.62193e-11
1.20678e-11
1.18392e-12
4.74622e-14
3.51259e-15
2.60714e-16
4.30245e-18
1.90886e-18
0
3.47384e-20
-6.50131e-21
1.20009e-21
-1.93521e-22
3.64022e-22
3.19484e-22
2.11228e-22
6.05365e-23
0
7.0257e-23
7.36573e-23
)
;
    }
    frontAndBack
    {
        type            empty;
    }
}


// ************************************************************************* //
