/*--------------------------------*- C++ -*----------------------------------*\
| =========                 |                                                 |
| \\      /  F ield         | OpenFOAM: The Open Source CFD Toolbox           |
|  \\    /   O peration     | Version:  2506                                  |
|   \\  /    A nd           | Website:  www.openfoam.com                      |
|    \\/     M anipulation  |                                                 |
\*---------------------------------------------------------------------------*/
FoamFile
{
    version     2.0;
    format      ascii;
    arch        "LSB;label=32;scalar=64";
    class       volScalarField;
    location    "3.5";
    object      magSqrP;
}
// * * * * * * * * * * * * * * * * * * * * * * * * * * * * * * * * * * * * * //

dimensions      [0 4 -4 0 0 0 0];

internalField   nonuniform List<scalar> 
400
(
0
3.24786e-19
5.88223e-23
7.08466e-24
0
0
0
0
0
0
0
0
0
0
0
0
6.25083e-27
7.0055e-26
1.40307e-25
1.77975e-25
0
0
0
0
0
0
0
0
0
0
0
0
0
0
0
0
1.99844e-26
9.92172e-26
1.78269e-25
2.1937e-25
0
1.17262e-17
9.32453e-21
3.40672e-20
0
0
0
0
0
0
0
0
0
0
0
6.76044e-28
6.92019e-26
1.76435e-25
2.65114e-25
3.0895e-25
0
0
0
0
9.4968e-23
0
0
0
0
0
0
0
0
0
0
5.61709e-26
1.88867e-25
3.1897e-25
4.18861e-25
4.68275e-25
0
3.8982e-17
6.64264e-20
1.63927e-19
0
7.14921e-23
0
0
0
0
0
0
0
4.45099e-28
8.22721e-26
2.46621e-25
4.22918e-25
5.65347e-25
6.63707e-25
7.11501e-25
5.86746e-19
0
0
0
1.18927e-21
0
2.26698e-23
0
0
0
0
2.46789e-28
7.79045e-26
2.33667e-25
4.30706e-25
6.35007e-25
8.05756e-25
9.26651e-25
1.01674e-24
1.06501e-24
0
5.48413e-17
5.87684e-20
2.57755e-19
0
4.43932e-22
0
2.47068e-24
4.47293e-27
6.10044e-25
4.96509e-25
6.89151e-25
8.06539e-25
9.58601e-25
1.10605e-24
1.25126e-24
1.36418e-24
1.43835e-24
1.49428e-24
1.52903e-24
8.77573e-19
0
0
0
2.29868e-21
0
1.18024e-22
2.66877e-24
7.56657e-24
3.26192e-24
3.13061e-24
2.55921e-24
2.34574e-24
2.18817e-24
2.12824e-24
2.11577e-24
2.09816e-24
2.07742e-24
2.09421e-24
2.12103e-24
0
5.41437e-17
5.59707e-20
2.66455e-19
0
7.55106e-22
0
3.01419e-23
9.92314e-24
1.05077e-23
7.0559e-24
5.68602e-24
4.57253e-24
3.90274e-24
3.46479e-24
3.19264e-24
2.99836e-24
2.86475e-24
2.81287e-24
2.81372e-24
7.76939e-19
0
0
0
2.74143e-21
0
2.20021e-22
2.6984e-23
3.09856e-23
1.67986e-23
1.30201e-23
9.49028e-24
7.42399e-24
5.98249e-24
5.06476e-24
4.46475e-24
4.03043e-24
3.74022e-24
3.62519e-24
3.61307e-24
0
4.50771e-17
5.12576e-20
2.28782e-19
0
9.21743e-22
6.10521e-24
7.36403e-23
3.34248e-23
2.83783e-23
1.90094e-23
1.41642e-23
1.06262e-23
8.35523e-24
6.8463e-24
5.85274e-24
5.16361e-24
4.71928e-24
4.51597e-24
4.47273e-24
5.70117e-19
0
0
0
2.75183e-21
0
3.02596e-22
6.64628e-23
6.1207e-23
3.61264e-23
2.65632e-23
1.88961e-23
1.41293e-23
1.08641e-23
8.74099e-24
7.33463e-24
6.35351e-24
5.72441e-24
5.44932e-24
5.39275e-24
0
3.2392e-17
4.16864e-20
1.69947e-19
0
9.65401e-22
4.49354e-23
1.20604e-22
6.30605e-23
4.91611e-23
3.31774e-23
2.40745e-23
1.76519e-23
1.34578e-23
1.06723e-23
8.82689e-24
7.56603e-24
6.77656e-24
6.41002e-24
6.31894e-24
3.63369e-19
0
0
0
2.47775e-21
1.32986e-23
3.57263e-22
1.11331e-22
9.16249e-23
5.68438e-23
4.08401e-23
2.88616e-23
2.12e-23
1.59927e-23
1.25851e-23
1.03235e-23
8.76982e-24
7.79435e-24
7.35607e-24
7.24441e-24
0
1.94945e-17
2.97315e-20
1.07379e-19
0
9.13982e-22
1.09823e-22
1.62837e-22
9.29388e-23
6.90107e-23
4.69786e-23
3.37107e-23
2.45121e-23
1.84427e-23
1.44175e-23
1.17445e-23
9.92557e-24
8.79554e-24
8.26648e-24
8.11662e-24
1.94932e-19
0
0
0
2.0351e-21
1.0156e-22
3.79648e-22
1.52982e-22
1.17008e-22
7.53354e-23
5.34993e-23
3.78298e-23
2.76014e-23
2.06675e-23
1.6105e-23
1.30662e-23
1.09898e-23
9.69193e-24
9.09128e-24
8.92052e-24
0
9.04209e-18
1.75204e-20
5.42996e-20
7.10877e-23
7.89453e-22
1.82422e-22
1.91654e-22
1.16969e-22
8.43301e-23
5.8071e-23
4.1542e-23
3.01829e-23
2.25996e-23
1.75613e-23
1.42003e-23
1.19098e-23
1.04817e-23
9.80651e-24
9.61254e-24
7.15622e-20
0
0
0
1.46411e-21
2.34898e-22
3.60494e-22
1.80867e-22
1.3215e-22
8.81782e-23
6.24575e-23
4.44031e-23
3.23769e-23
2.42113e-23
1.87999e-23
1.51769e-23
1.26868e-23
1.11175e-23
1.03861e-23
1.0185e-23
0
2.3557e-18
7.87941e-21
1.62513e-20
2.95981e-22
5.75943e-22
2.43154e-22
2.01052e-22
1.32306e-22
9.36968e-23
6.55015e-23
4.68898e-23
3.41383e-23
2.55405e-23
1.98126e-23
1.59427e-23
1.32644e-23
1.16124e-23
1.0861e-23
1.06287e-23
1.60937e-20
0
1.65766e-21
0
9.91765e-22
3.13312e-22
3.24205e-22
1.93929e-22
1.39751e-22
9.5544e-23
6.76427e-23
4.82433e-23
3.51716e-23
2.62986e-23
2.038e-23
1.63477e-23
1.35824e-23
1.19351e-23
1.11813e-23
1.0896e-23
)
;

boundaryField
{
    movingWall
    {
        type            calculated;
        value           nonuniform List<scalar> 
20
(
1.60937e-20
0
1.65766e-21
0
9.91765e-22
3.13312e-22
3.24205e-22
1.93929e-22
1.39751e-22
9.5544e-23
6.76427e-23
4.82433e-23
3.51716e-23
2.62986e-23
2.038e-23
1.63477e-23
1.35824e-23
1.19351e-23
1.11813e-23
1.0896e-23
)
;
    }
    fixedWalls
    {
        type            calculated;
        value           nonuniform List<scalar> 
60
(
0
0
0
0
0
5.86746e-19
0
8.77573e-19
0
7.76939e-19
0
5.70117e-19
0
3.63369e-19
0
1.94932e-19
0
7.15622e-20
0
1.60937e-20
1.77975e-25
2.1937e-25
3.0895e-25
4.68275e-25
7.11501e-25
1.06501e-24
1.52903e-24
2.12103e-24
2.81372e-24
3.61307e-24
4.47273e-24
5.39275e-24
6.31894e-24
7.24441e-24
8.11662e-24
8.92052e-24
9.61254e-24
1.0185e-23
1.06287e-23
1.0896e-23
0
3.24786e-19
5.88223e-23
7.08466e-24
0
0
0
0
0
0
0
0
0
0
0
0
6.25083e-27
7.0055e-26
1.40307e-25
1.77975e-25
)
;
    }
    frontAndBack
    {
        type            empty;
    }
}


// ************************************************************************* //
