/*--------------------------------*- C++ -*----------------------------------*\
| =========                 |                                                 |
| \\      /  F ield         | OpenFOAM: The Open Source CFD Toolbox           |
|  \\    /   O peration     | Version:  2506                                  |
|   \\  /    A nd           | Website:  www.openfoam.com                      |
|    \\/     M anipulation  |                                                 |
\*---------------------------------------------------------------------------*/
FoamFile
{
    version     2.0;
    format      ascii;
    arch        "LSB;label=32;scalar=64";
    class       volVectorField;
    location    "3.5";
    object      momentum1:momentum;
}
// * * * * * * * * * * * * * * * * * * * * * * * * * * * * * * * * * * * * * //

dimensions      [1 1 -1 0 0 0 0];

internalField   nonuniform List<vector> 
400
(
(-2.5e-07 5.63419e-14 0)
(-2.5e-07 -1.28228e-14 0)
(-2.5e-07 3.03658e-15 0)
(-2.5e-07 -6.92367e-16 0)
(-2.5e-07 1.60423e-16 0)
(-2.5e-07 -3.73327e-17 0)
(-2.5e-07 8.37817e-18 0)
(-2.5e-07 -1.99577e-18 0)
(-2.5e-07 4.17779e-19 0)
(-2.5e-07 -1.12969e-19 0)
(-2.5e-07 1.62976e-20 0)
(-2.5e-07 -8.29037e-21 0)
(-2.5e-07 -1.7165e-21 0)
(-2.5e-07 -4.75642e-21 0)
(-2.5e-07 -7.02853e-21 0)
(-2.5e-07 -8.64826e-21 0)
(-2.5e-07 -7.54448e-21 0)
(-2.5e-07 -5.44188e-21 0)
(-2.5e-07 -4.65329e-21 0)
(-2.5e-07 -6.45965e-21 0)
(-2.5e-07 -5.76296e-14 0)
(-2.5e-07 1.31025e-14 0)
(-2.5e-07 -3.09734e-15 0)
(-2.5e-07 7.04254e-16 0)
(-2.5e-07 -1.63183e-16 0)
(-2.5e-07 3.73341e-17 0)
(-2.5e-07 -8.67803e-18 0)
(-2.5e-07 1.82459e-18 0)
(-2.5e-07 -5.06166e-19 0)
(-2.5e-07 6.61009e-20 0)
(-2.5e-07 -3.45624e-20 0)
(-2.5e-07 -7.11983e-22 0)
(-2.5e-07 -6.42494e-21 0)
(-2.5e-07 -1.1289e-20 0)
(-2.5e-07 -1.97028e-20 0)
(-2.5e-07 -2.56327e-20 0)
(-2.5e-07 -2.33412e-20 0)
(-2.5e-07 -1.40502e-20 0)
(-2.5e-07 -1.4853e-20 0)
(-2.5e-07 -1.9128e-20 0)
(-2.5e-07 6.02217e-14 0)
(-2.5e-07 -1.37055e-14 0)
(-2.5e-07 3.24399e-15 0)
(-2.5e-07 -7.39678e-16 0)
(-2.5e-07 1.70459e-16 0)
(-2.5e-07 -4.0241e-17 0)
(-2.5e-07 8.6067e-18 0)
(-2.5e-07 -2.26647e-18 0)
(-2.5e-07 3.76089e-19 0)
(-2.5e-07 -1.4194e-19 0)
(-2.5e-07 1.3869e-20 0)
(-2.5e-07 -6.5375e-21 0)
(-2.5e-07 -2.46742e-21 0)
(-2.5e-07 -1.54634e-20 0)
(-2.5e-07 -2.94718e-20 0)
(-2.5e-07 -3.97119e-20 0)
(-2.5e-07 -3.66154e-20 0)
(-2.5e-07 -2.2787e-20 0)
(-2.5e-07 -2.37164e-20 0)
(-2.5e-07 -3.09859e-20 0)
(-2.5e-07 -6.38731e-14 0)
(-2.5e-07 1.45796e-14 0)
(-2.5e-07 -3.46268e-15 0)
(-2.5e-07 7.84152e-16 0)
(-2.5e-07 -1.84875e-16 0)
(-2.5e-07 4.15591e-17 0)
(-2.5e-07 -9.98765e-18 0)
(-2.5e-07 2.033e-18 0)
(-2.5e-07 -5.82924e-19 0)
(-2.5e-07 9.25616e-20 0)
(-2.5e-07 -1.98633e-20 0)
(-2.5e-07 1.68301e-20 0)
(-2.5e-07 2.82442e-21 0)
(-2.5e-07 -1.41272e-20 0)
(-2.5e-07 -3.56344e-20 0)
(-2.5e-07 -5.08005e-20 0)
(-2.5e-07 -4.78316e-20 0)
(-2.5e-07 -2.89631e-20 0)
(-2.5e-07 -3.1413e-20 0)
(-2.5e-07 -4.17793e-20 0)
(-2.5e-07 6.77421e-14 0)
(-2.5e-07 -1.56784e-14 0)
(-2.5e-07 3.70779e-15 0)
(-2.5e-07 -8.54978e-16 0)
(-2.5e-07 1.98583e-16 0)
(-2.5e-07 -4.67068e-17 0)
(-2.5e-07 1.02769e-17 0)
(-2.5e-07 -2.58363e-18 0)
(-2.5e-07 5.22995e-19 0)
(-2.5e-07 -1.09597e-19 0)
(-2.5e-07 6.40735e-20 0)
(-2.5e-07 2.65153e-20 0)
(-2.5e-07 1.95444e-20 0)
(-2.5e-07 -8.85117e-21 0)
(-2.5e-07 -3.71795e-20 0)
(-2.5e-07 -5.76407e-20 0)
(-2.5e-07 -5.51623e-20 0)
(-2.5e-07 -3.36634e-20 0)
(-2.5e-07 -3.73094e-20 0)
(-2.5e-07 -5.10869e-20 0)
(-2.5e-07 -7.09019e-14 0)
(-2.5e-07 1.66105e-14 0)
(-2.5e-07 -3.9315e-15 0)
(-2.5e-07 9.17937e-16 0)
(-2.5e-07 -2.16044e-16 0)
(-2.5e-07 5.02243e-17 0)
(-2.5e-07 -1.17883e-17 0)
(-2.5e-07 2.71105e-18 0)
(-2.5e-07 -5.80612e-19 0)
(-2.5e-07 2.17631e-19 0)
(-2.5e-07 4.40809e-20 0)
(-2.5e-07 6.98789e-20 0)
(-2.5e-07 3.63065e-20 0)
(-2.5e-07 2.51052e-21 0)
(-2.5e-07 -3.44704e-20 0)
(-2.5e-07 -6.04937e-20 0)
(-2.5e-07 -5.95751e-20 0)
(-2.5e-07 -3.56034e-20 0)
(-2.5e-07 -4.14222e-20 0)
(-2.5e-07 -5.86987e-20 0)
(-2.5e-07 7.38561e-14 0)
(-2.5e-07 -1.74341e-14 0)
(-2.5e-07 4.12927e-15 0)
(-2.5e-07 -9.73445e-16 0)
(-2.5e-07 2.29899e-16 0)
(-2.5e-07 -5.41777e-17 0)
(-2.5e-07 1.27993e-17 0)
(-2.5e-07 -2.88636e-18 0)
(-2.5e-07 8.3737e-19 0)
(-2.5e-07 -2.36086e-20 0)
(-2.5e-07 1.63147e-19 0)
(-2.5e-07 8.82349e-20 0)
(-2.5e-07 6.38085e-20 0)
(-2.5e-07 1.62195e-20 0)
(-2.5e-07 -2.74895e-20 0)
(-2.5e-07 -5.91665e-20 0)
(-2.5e-07 -6.00711e-20 0)
(-2.5e-07 -3.56861e-20 0)
(-2.5e-07 -4.36124e-20 0)
(-2.5e-07 -6.44636e-20 0)
(-2.5e-07 -7.67157e-14 0)
(-2.5e-07 1.81997e-14 0)
(-2.5e-07 -4.31145e-15 0)
(-2.5e-07 1.02252e-15 0)
(-2.5e-07 -2.41967e-16 0)
(-2.5e-07 5.75827e-17 0)
(-2.5e-07 -1.33652e-17 0)
(-2.5e-07 3.44284e-18 0)
(-2.5e-07 -5.36521e-19 0)
(-2.5e-07 3.86274e-19 0)
(-2.5e-07 1.31895e-19 0)
(-2.5e-07 1.43031e-19 0)
(-2.5e-07 8.50881e-20 0)
(-2.5e-07 3.41671e-20 0)
(-2.5e-07 -1.77789e-20 0)
(-2.5e-07 -5.43199e-20 0)
(-2.5e-07 -5.78247e-20 0)
(-2.5e-07 -3.3519e-20 0)
(-2.5e-07 -4.39733e-20 0)
(-2.5e-07 -6.8311e-20 0)
(-2.5e-07 7.94918e-14 0)
(-2.5e-07 -1.89152e-14 0)
(-2.5e-07 4.48405e-15 0)
(-2.5e-07 -1.0662e-15 0)
(-2.5e-07 2.5378e-16 0)
(-2.5e-07 -5.97995e-17 0)
(-2.5e-07 1.46809e-17 0)
(-2.5e-07 -3.0706e-18 0)
(-2.5e-07 1.11344e-18 0)
(-2.5e-07 7.51569e-20 0)
(-2.5e-07 2.66065e-19 0)
(-2.5e-07 1.56535e-19 0)
(-2.5e-07 1.15253e-19 0)
(-2.5e-07 5.07944e-20 0)
(-2.5e-07 -5.62285e-21 0)
(-2.5e-07 -4.68471e-20 0)
(-2.5e-07 -5.27171e-20 0)
(-2.5e-07 -2.97231e-20 0)
(-2.5e-07 -4.2709e-20 0)
(-2.5e-07 -7.02803e-20 0)
(-2.5e-07 -8.22097e-14 0)
(-2.5e-07 1.96115e-14 0)
(-2.5e-07 -4.64748e-15 0)
(-2.5e-07 1.10951e-15 0)
(-2.5e-07 -2.63065e-16 0)
(-2.5e-07 6.32569e-17 0)
(-2.5e-07 -1.45274e-17 0)
(-2.5e-07 3.97892e-18 0)
(-2.5e-07 -4.80809e-19 0)
(-2.5e-07 5.22716e-19 0)
(-2.5e-07 2.11487e-19 0)
(-2.5e-07 2.09211e-19 0)
(-2.5e-07 1.32775e-19 0)
(-2.5e-07 6.9261e-20 0)
(-2.5e-07 6.85114e-21 0)
(-2.5e-07 -3.73978e-20 0)
(-2.5e-07 -4.58328e-20 0)
(-2.5e-07 -2.4647e-20 0)
(-2.5e-07 -3.99038e-20 0)
(-2.5e-07 -7.05353e-20 0)
(-2.5e-07 8.47908e-14 0)
(-2.5e-07 -2.02594e-14 0)
(-2.5e-07 4.8036e-15 0)
(-2.5e-07 -1.14703e-15 0)
(-2.5e-07 2.73835e-16 0)
(-2.5e-07 -6.45034e-17 0)
(-2.5e-07 1.61143e-17 0)
(-2.5e-07 -3.22916e-18 0)
(-2.5e-07 1.3107e-18 0)
(-2.5e-07 1.47306e-19 0)
(-2.5e-07 3.42067e-19 0)
(-2.5e-07 2.0953e-19 0)
(-2.5e-07 1.5743e-19 0)
(-2.5e-07 8.31188e-20 0)
(-2.5e-07 1.96789e-20 0)
(-2.5e-07 -2.72234e-20 0)
(-2.5e-07 -3.76739e-20 0)
(-2.5e-07 -1.85567e-20 0)
(-2.5e-07 -3.6066e-20 0)
(-2.5e-07 -6.92e-20 0)
(-2.5e-07 -8.72589e-14 0)
(-2.5e-07 2.08809e-14 0)
(-2.5e-07 -4.94878e-15 0)
(-2.5e-07 1.18541e-15 0)
(-2.5e-07 -2.8135e-16 0)
(-2.5e-07 6.79535e-17 0)
(-2.5e-07 -1.55362e-17 0)
(-2.5e-07 4.36912e-18 0)
(-2.5e-07 -4.63657e-19 0)
(-2.5e-07 6.08509e-19 0)
(-2.5e-07 2.59512e-19 0)
(-2.5e-07 2.51224e-19 0)
(-2.5e-07 1.65165e-19 0)
(-2.5e-07 9.66944e-20 0)
(-2.5e-07 3.05553e-20 0)
(-2.5e-07 -1.6744e-20 0)
(-2.5e-07 -2.89356e-20 0)
(-2.5e-07 -1.23397e-20 0)
(-2.5e-07 -3.11088e-20 0)
(-2.5e-07 -6.64502e-20 0)
(-2.5e-07 8.95163e-14 0)
(-2.5e-07 -2.14391e-14 0)
(-2.5e-07 5.08353e-15 0)
(-2.5e-07 -1.21669e-15 0)
(-2.5e-07 2.90875e-16 0)
(-2.5e-07 -6.85308e-17 0)
(-2.5e-07 1.72405e-17 0)
(-2.5e-07 -3.40589e-18 0)
(-2.5e-07 1.42999e-18 0)
(-2.5e-07 1.7368e-19 0)
(-2.5e-07 3.77608e-19 0)
(-2.5e-07 2.33459e-19 0)
(-2.5e-07 1.7892e-19 0)
(-2.5e-07 1.03218e-19 0)
(-2.5e-07 3.99109e-20 0)
(-2.5e-07 -7.39167e-21 0)
(-2.5e-07 -2.04091e-20 0)
(-2.5e-07 -5.72956e-21 0)
(-2.5e-07 -2.59051e-20 0)
(-2.5e-07 -6.2354e-20 0)
(-2.5e-07 -9.16033e-14 0)
(-2.5e-07 2.19594e-14 0)
(-2.5e-07 -5.20457e-15 0)
(-2.5e-07 1.24895e-15 0)
(-2.5e-07 -2.96623e-16 0)
(-2.5e-07 7.17738e-17 0)
(-2.5e-07 -1.64059e-17 0)
(-2.5e-07 4.63497e-18 0)
(-2.5e-07 -4.94163e-19 0)
(-2.5e-07 6.3744e-19 0)
(-2.5e-07 2.6536e-19 0)
(-2.5e-07 2.59441e-19 0)
(-2.5e-07 1.72983e-19 0)
(-2.5e-07 1.08007e-19 0)
(-2.5e-07 4.55989e-20 0)
(-2.5e-07 9.46268e-22 0)
(-2.5e-07 -1.23884e-20 0)
(-2.5e-07 -3.64935e-22 0)
(-2.5e-07 -2.026e-20 0)
(-2.5e-07 -5.7041e-20 0)
(-2.5e-07 9.34205e-14 0)
(-2.5e-07 -2.24023e-14 0)
(-2.5e-07 5.31189e-15 0)
(-2.5e-07 -1.27287e-15 0)
(-2.5e-07 3.04513e-16 0)
(-2.5e-07 -7.17712e-17 0)
(-2.5e-07 1.80756e-17 0)
(-2.5e-07 -3.59507e-18 0)
(-2.5e-07 1.47148e-18 0)
(-2.5e-07 1.48381e-19 0)
(-2.5e-07 3.66002e-19 0)
(-2.5e-07 2.21018e-19 0)
(-2.5e-07 1.72522e-19 0)
(-2.5e-07 1.0421e-19 0)
(-2.5e-07 4.86798e-20 0)
(-2.5e-07 6.85968e-21 0)
(-2.5e-07 -6.04548e-21 0)
(-2.5e-07 4.44841e-21 0)
(-2.5e-07 -1.53112e-20 0)
(-2.5e-07 -5.05642e-20 0)
(-2.5e-07 -9.50198e-14 0)
(-2.5e-07 2.27959e-14 0)
(-2.5e-07 -5.40254e-15 0)
(-2.5e-07 1.29751e-15 0)
(-2.5e-07 -3.08171e-16 0)
(-2.5e-07 7.46086e-17 0)
(-2.5e-07 -1.70884e-17 0)
(-2.5e-07 4.77155e-18 0)
(-2.5e-07 -5.73728e-19 0)
(-2.5e-07 6.03753e-19 0)
(-2.5e-07 2.23604e-19 0)
(-2.5e-07 2.28175e-19 0)
(-2.5e-07 1.50892e-19 0)
(-2.5e-07 9.79401e-20 0)
(-2.5e-07 4.69585e-20 0)
(-2.5e-07 1.06017e-20 0)
(-2.5e-07 -1.17789e-21 0)
(-2.5e-07 6.7271e-21 0)
(-2.5e-07 -1.0817e-20 0)
(-2.5e-07 -4.30417e-20 0)
(-2.5e-07 9.63139e-14 0)
(-2.5e-07 -2.31092e-14 0)
(-2.5e-07 5.47955e-15 0)
(-2.5e-07 -1.31347e-15 0)
(-2.5e-07 3.1441e-16 0)
(-2.5e-07 -7.41137e-17 0)
(-2.5e-07 1.85978e-17 0)
(-2.5e-07 -3.80795e-18 0)
(-2.5e-07 1.4202e-18 0)
(-2.5e-07 5.93574e-20 0)
(-2.5e-07 2.97949e-19 0)
(-2.5e-07 1.64923e-19 0)
(-2.5e-07 1.32481e-19 0)
(-2.5e-07 8.08542e-20 0)
(-2.5e-07 4.0961e-20 0)
(-2.5e-07 1.08103e-20 0)
(-2.5e-07 1.56837e-21 0)
(-2.5e-07 8.68917e-21 0)
(-2.5e-07 -6.99546e-21 0)
(-2.5e-07 -3.48918e-20 0)
(-2.5e-07 -9.73609e-14 0)
(-2.5e-07 2.33636e-14 0)
(-2.5e-07 -5.53594e-15 0)
(-2.5e-07 1.33065e-15 0)
(-2.5e-07 -3.15925e-16 0)
(-2.5e-07 7.64708e-17 0)
(-2.5e-07 -1.76623e-17 0)
(-2.5e-07 4.7533e-18 0)
(-2.5e-07 -7.32632e-19 0)
(-2.5e-07 4.95841e-19 0)
(-2.5e-07 1.26798e-19 0)
(-2.5e-07 1.55479e-19 0)
(-2.5e-07 9.82269e-20 0)
(-2.5e-07 6.65565e-20 0)
(-2.5e-07 3.45384e-20 0)
(-2.5e-07 1.25275e-20 0)
(-2.5e-07 5.16831e-21 0)
(-2.5e-07 9.23523e-21 0)
(-2.5e-07 -3.07463e-21 0)
(-2.5e-07 -2.63327e-20 0)
(-2.5e-07 9.80756e-14 0)
(-2.5e-07 -2.35288e-14 0)
(-2.5e-07 5.57806e-15 0)
(-2.5e-07 -1.33572e-15 0)
(-2.5e-07 3.19472e-16 0)
(-2.5e-07 -7.5403e-17 0)
(-2.5e-07 1.85941e-17 0)
(-2.5e-07 -4.06587e-18 0)
(-2.5e-07 1.24477e-18 0)
(-2.5e-07 -9.29207e-20 0)
(-2.5e-07 1.77497e-19 0)
(-2.5e-07 7.29993e-20 0)
(-2.5e-07 6.6041e-20 0)
(-2.5e-07 3.92437e-20 0)
(-2.5e-07 2.12671e-20 0)
(-2.5e-07 7.10608e-21 0)
(-2.5e-07 3.02791e-21 0)
(-2.5e-07 8.62471e-21 0)
(-2.5e-07 1.72389e-21 0)
(-2.5e-07 -1.69237e-20 0)
(-2.5e-07 -9.86449e-14 0)
(-2.5e-07 2.3789e-14 0)
(-2.5e-07 -5.64022e-15 0)
(-2.5e-07 1.36072e-15 0)
(-2.5e-07 -3.24976e-16 0)
(-2.5e-07 7.81557e-17 0)
(-2.5e-07 -1.8688e-17 0)
(-2.5e-07 4.60616e-18 0)
(-2.5e-07 -1.02539e-18 0)
(-2.5e-07 3.12506e-19 0)
(-2.5e-07 -2.8904e-20 0)
(-2.5e-07 4.04119e-20 0)
(-2.5e-07 1.31568e-20 0)
(-2.5e-07 1.08721e-20 0)
(-2.5e-07 3.86692e-21 0)
(-2.5e-07 5.54895e-23 0)
(-2.5e-07 -1.57874e-22 0)
(-2.5e-07 3.64967e-21 0)
(-2.5e-07 2.22576e-21 0)
(-2.5e-07 -5.88548e-21 0)
)
;

boundaryField
{
    movingWall
    {
        type            calculated;
        value           uniform (0 0 0);
    }
    fixedWalls
    {
        type            calculated;
        value           uniform (0 0 0);
    }
    frontAndBack
    {
        type            empty;
    }
}


// ************************************************************************* //
