/*--------------------------------*- C++ -*----------------------------------*\
| =========                 |                                                 |
| \\      /  F ield         | OpenFOAM: The Open Source CFD Toolbox           |
|  \\    /   O peration     | Version:  2506                                  |
|   \\  /    A nd           | Website:  www.openfoam.com                      |
|    \\/     M anipulation  |                                                 |
\*---------------------------------------------------------------------------*/
FoamFile
{
    version     2.0;
    format      ascii;
    arch        "LSB;label=32;scalar=64";
    class       volVectorField;
    location    "3.5";
    object      norm_U_L1;
}
// * * * * * * * * * * * * * * * * * * * * * * * * * * * * * * * * * * * * * //

dimensions      [0 0 0 0 0 0 0];

internalField   nonuniform List<vector> 
400
(
(-0.0025 5.63419e-10 0)
(-0.0025 -1.28228e-10 0)
(-0.0025 3.03658e-11 0)
(-0.0025 -6.92367e-12 0)
(-0.0025 1.60423e-12 0)
(-0.0025 -3.73327e-13 0)
(-0.0025 8.37817e-14 0)
(-0.0025 -1.99577e-14 0)
(-0.0025 4.17779e-15 0)
(-0.0025 -1.12969e-15 0)
(-0.0025 1.62976e-16 0)
(-0.0025 -8.29037e-17 0)
(-0.0025 -1.7165e-17 0)
(-0.0025 -4.75642e-17 0)
(-0.0025 -7.02853e-17 0)
(-0.0025 -8.64826e-17 0)
(-0.0025 -7.54448e-17 0)
(-0.0025 -5.44188e-17 0)
(-0.0025 -4.65329e-17 0)
(-0.0025 -6.45965e-17 0)
(-0.0025 -5.76296e-10 0)
(-0.0025 1.31025e-10 0)
(-0.0025 -3.09734e-11 0)
(-0.0025 7.04254e-12 0)
(-0.0025 -1.63183e-12 0)
(-0.0025 3.73341e-13 0)
(-0.0025 -8.67803e-14 0)
(-0.0025 1.82459e-14 0)
(-0.0025 -5.06166e-15 0)
(-0.0025 6.61009e-16 0)
(-0.0025 -3.45624e-16 0)
(-0.0025 -7.11983e-18 0)
(-0.0025 -6.42494e-17 0)
(-0.0025 -1.1289e-16 0)
(-0.0025 -1.97028e-16 0)
(-0.0025 -2.56327e-16 0)
(-0.0025 -2.33412e-16 0)
(-0.0025 -1.40502e-16 0)
(-0.0025 -1.4853e-16 0)
(-0.0025 -1.9128e-16 0)
(-0.0025 6.02217e-10 0)
(-0.0025 -1.37055e-10 0)
(-0.0025 3.24399e-11 0)
(-0.0025 -7.39678e-12 0)
(-0.0025 1.70459e-12 0)
(-0.0025 -4.0241e-13 0)
(-0.0025 8.6067e-14 0)
(-0.0025 -2.26647e-14 0)
(-0.0025 3.76089e-15 0)
(-0.0025 -1.4194e-15 0)
(-0.0025 1.3869e-16 0)
(-0.0025 -6.5375e-17 0)
(-0.0025 -2.46742e-17 0)
(-0.0025 -1.54634e-16 0)
(-0.0025 -2.94718e-16 0)
(-0.0025 -3.97119e-16 0)
(-0.0025 -3.66154e-16 0)
(-0.0025 -2.2787e-16 0)
(-0.0025 -2.37164e-16 0)
(-0.0025 -3.09859e-16 0)
(-0.0025 -6.38731e-10 0)
(-0.0025 1.45796e-10 0)
(-0.0025 -3.46268e-11 0)
(-0.0025 7.84152e-12 0)
(-0.0025 -1.84875e-12 0)
(-0.0025 4.15591e-13 0)
(-0.0025 -9.98765e-14 0)
(-0.0025 2.033e-14 0)
(-0.0025 -5.82924e-15 0)
(-0.0025 9.25616e-16 0)
(-0.0025 -1.98633e-16 0)
(-0.0025 1.68301e-16 0)
(-0.0025 2.82442e-17 0)
(-0.0025 -1.41272e-16 0)
(-0.0025 -3.56344e-16 0)
(-0.0025 -5.08005e-16 0)
(-0.0025 -4.78316e-16 0)
(-0.0025 -2.89631e-16 0)
(-0.0025 -3.1413e-16 0)
(-0.0025 -4.17793e-16 0)
(-0.0025 6.77421e-10 0)
(-0.0025 -1.56784e-10 0)
(-0.0025 3.70779e-11 0)
(-0.0025 -8.54978e-12 0)
(-0.0025 1.98583e-12 0)
(-0.0025 -4.67068e-13 0)
(-0.0025 1.02769e-13 0)
(-0.0025 -2.58363e-14 0)
(-0.0025 5.22995e-15 0)
(-0.0025 -1.09597e-15 0)
(-0.0025 6.40735e-16 0)
(-0.0025 2.65153e-16 0)
(-0.0025 1.95444e-16 0)
(-0.0025 -8.85117e-17 0)
(-0.0025 -3.71795e-16 0)
(-0.0025 -5.76407e-16 0)
(-0.0025 -5.51623e-16 0)
(-0.0025 -3.36634e-16 0)
(-0.0025 -3.73094e-16 0)
(-0.0025 -5.10869e-16 0)
(-0.0025 -7.09019e-10 0)
(-0.0025 1.66105e-10 0)
(-0.0025 -3.9315e-11 0)
(-0.0025 9.17937e-12 0)
(-0.0025 -2.16044e-12 0)
(-0.0025 5.02243e-13 0)
(-0.0025 -1.17883e-13 0)
(-0.0025 2.71105e-14 0)
(-0.0025 -5.80612e-15 0)
(-0.0025 2.17631e-15 0)
(-0.0025 4.40809e-16 0)
(-0.0025 6.98789e-16 0)
(-0.0025 3.63065e-16 0)
(-0.0025 2.51052e-17 0)
(-0.0025 -3.44704e-16 0)
(-0.0025 -6.04937e-16 0)
(-0.0025 -5.95751e-16 0)
(-0.0025 -3.56034e-16 0)
(-0.0025 -4.14222e-16 0)
(-0.0025 -5.86987e-16 0)
(-0.0025 7.38561e-10 0)
(-0.0025 -1.74341e-10 0)
(-0.0025 4.12927e-11 0)
(-0.0025 -9.73445e-12 0)
(-0.0025 2.29899e-12 0)
(-0.0025 -5.41777e-13 0)
(-0.0025 1.27993e-13 0)
(-0.0025 -2.88636e-14 0)
(-0.0025 8.3737e-15 0)
(-0.0025 -2.36086e-16 0)
(-0.0025 1.63147e-15 0)
(-0.0025 8.82349e-16 0)
(-0.0025 6.38085e-16 0)
(-0.0025 1.62195e-16 0)
(-0.0025 -2.74895e-16 0)
(-0.0025 -5.91665e-16 0)
(-0.0025 -6.00711e-16 0)
(-0.0025 -3.56861e-16 0)
(-0.0025 -4.36124e-16 0)
(-0.0025 -6.44636e-16 0)
(-0.0025 -7.67157e-10 0)
(-0.0025 1.81997e-10 0)
(-0.0025 -4.31145e-11 0)
(-0.0025 1.02252e-11 0)
(-0.0025 -2.41967e-12 0)
(-0.0025 5.75827e-13 0)
(-0.0025 -1.33652e-13 0)
(-0.0025 3.44284e-14 0)
(-0.0025 -5.36521e-15 0)
(-0.0025 3.86274e-15 0)
(-0.0025 1.31895e-15 0)
(-0.0025 1.43031e-15 0)
(-0.0025 8.50881e-16 0)
(-0.0025 3.41671e-16 0)
(-0.0025 -1.77789e-16 0)
(-0.0025 -5.43199e-16 0)
(-0.0025 -5.78247e-16 0)
(-0.0025 -3.3519e-16 0)
(-0.0025 -4.39733e-16 0)
(-0.0025 -6.8311e-16 0)
(-0.0025 7.94918e-10 0)
(-0.0025 -1.89152e-10 0)
(-0.0025 4.48405e-11 0)
(-0.0025 -1.0662e-11 0)
(-0.0025 2.5378e-12 0)
(-0.0025 -5.97995e-13 0)
(-0.0025 1.46809e-13 0)
(-0.0025 -3.0706e-14 0)
(-0.0025 1.11344e-14 0)
(-0.0025 7.51569e-16 0)
(-0.0025 2.66065e-15 0)
(-0.0025 1.56535e-15 0)
(-0.0025 1.15253e-15 0)
(-0.0025 5.07944e-16 0)
(-0.0025 -5.62285e-17 0)
(-0.0025 -4.68471e-16 0)
(-0.0025 -5.27171e-16 0)
(-0.0025 -2.97231e-16 0)
(-0.0025 -4.2709e-16 0)
(-0.0025 -7.02803e-16 0)
(-0.0025 -8.22097e-10 0)
(-0.0025 1.96115e-10 0)
(-0.0025 -4.64748e-11 0)
(-0.0025 1.10951e-11 0)
(-0.0025 -2.63065e-12 0)
(-0.0025 6.32569e-13 0)
(-0.0025 -1.45274e-13 0)
(-0.0025 3.97892e-14 0)
(-0.0025 -4.80809e-15 0)
(-0.0025 5.22716e-15 0)
(-0.0025 2.11487e-15 0)
(-0.0025 2.09211e-15 0)
(-0.0025 1.32775e-15 0)
(-0.0025 6.9261e-16 0)
(-0.0025 6.85114e-17 0)
(-0.0025 -3.73978e-16 0)
(-0.0025 -4.58328e-16 0)
(-0.0025 -2.4647e-16 0)
(-0.0025 -3.99038e-16 0)
(-0.0025 -7.05353e-16 0)
(-0.0025 8.47908e-10 0)
(-0.0025 -2.02594e-10 0)
(-0.0025 4.8036e-11 0)
(-0.0025 -1.14703e-11 0)
(-0.0025 2.73835e-12 0)
(-0.0025 -6.45034e-13 0)
(-0.0025 1.61143e-13 0)
(-0.0025 -3.22916e-14 0)
(-0.0025 1.3107e-14 0)
(-0.0025 1.47306e-15 0)
(-0.0025 3.42067e-15 0)
(-0.0025 2.0953e-15 0)
(-0.0025 1.5743e-15 0)
(-0.0025 8.31188e-16 0)
(-0.0025 1.96789e-16 0)
(-0.0025 -2.72234e-16 0)
(-0.0025 -3.76739e-16 0)
(-0.0025 -1.85567e-16 0)
(-0.0025 -3.6066e-16 0)
(-0.0025 -6.92e-16 0)
(-0.0025 -8.72589e-10 0)
(-0.0025 2.08809e-10 0)
(-0.0025 -4.94878e-11 0)
(-0.0025 1.18541e-11 0)
(-0.0025 -2.8135e-12 0)
(-0.0025 6.79535e-13 0)
(-0.0025 -1.55362e-13 0)
(-0.0025 4.36912e-14 0)
(-0.0025 -4.63657e-15 0)
(-0.0025 6.08509e-15 0)
(-0.0025 2.59512e-15 0)
(-0.0025 2.51224e-15 0)
(-0.0025 1.65165e-15 0)
(-0.0025 9.66944e-16 0)
(-0.0025 3.05553e-16 0)
(-0.0025 -1.6744e-16 0)
(-0.0025 -2.89356e-16 0)
(-0.0025 -1.23397e-16 0)
(-0.0025 -3.11088e-16 0)
(-0.0025 -6.64502e-16 0)
(-0.0025 8.95163e-10 0)
(-0.0025 -2.14391e-10 0)
(-0.0025 5.08353e-11 0)
(-0.0025 -1.21669e-11 0)
(-0.0025 2.90875e-12 0)
(-0.0025 -6.85308e-13 0)
(-0.0025 1.72405e-13 0)
(-0.0025 -3.40589e-14 0)
(-0.0025 1.42999e-14 0)
(-0.0025 1.7368e-15 0)
(-0.0025 3.77608e-15 0)
(-0.0025 2.33459e-15 0)
(-0.0025 1.7892e-15 0)
(-0.0025 1.03218e-15 0)
(-0.0025 3.99109e-16 0)
(-0.0025 -7.39167e-17 0)
(-0.0025 -2.04091e-16 0)
(-0.0025 -5.72956e-17 0)
(-0.0025 -2.59051e-16 0)
(-0.0025 -6.2354e-16 0)
(-0.0025 -9.16033e-10 0)
(-0.0025 2.19594e-10 0)
(-0.0025 -5.20457e-11 0)
(-0.0025 1.24895e-11 0)
(-0.0025 -2.96623e-12 0)
(-0.0025 7.17738e-13 0)
(-0.0025 -1.64059e-13 0)
(-0.0025 4.63497e-14 0)
(-0.0025 -4.94163e-15 0)
(-0.0025 6.3744e-15 0)
(-0.0025 2.6536e-15 0)
(-0.0025 2.59441e-15 0)
(-0.0025 1.72983e-15 0)
(-0.0025 1.08007e-15 0)
(-0.0025 4.55989e-16 0)
(-0.0025 9.46268e-18 0)
(-0.0025 -1.23884e-16 0)
(-0.0025 -3.64935e-18 0)
(-0.0025 -2.026e-16 0)
(-0.0025 -5.7041e-16 0)
(-0.0025 9.34205e-10 0)
(-0.0025 -2.24023e-10 0)
(-0.0025 5.31189e-11 0)
(-0.0025 -1.27287e-11 0)
(-0.0025 3.04513e-12 0)
(-0.0025 -7.17712e-13 0)
(-0.0025 1.80756e-13 0)
(-0.0025 -3.59507e-14 0)
(-0.0025 1.47148e-14 0)
(-0.0025 1.48381e-15 0)
(-0.0025 3.66002e-15 0)
(-0.0025 2.21018e-15 0)
(-0.0025 1.72522e-15 0)
(-0.0025 1.0421e-15 0)
(-0.0025 4.86798e-16 0)
(-0.0025 6.85968e-17 0)
(-0.0025 -6.04548e-17 0)
(-0.0025 4.44841e-17 0)
(-0.0025 -1.53112e-16 0)
(-0.0025 -5.05642e-16 0)
(-0.0025 -9.50198e-10 0)
(-0.0025 2.27959e-10 0)
(-0.0025 -5.40254e-11 0)
(-0.0025 1.29751e-11 0)
(-0.0025 -3.08171e-12 0)
(-0.0025 7.46086e-13 0)
(-0.0025 -1.70884e-13 0)
(-0.0025 4.77155e-14 0)
(-0.0025 -5.73728e-15 0)
(-0.0025 6.03753e-15 0)
(-0.0025 2.23604e-15 0)
(-0.0025 2.28175e-15 0)
(-0.0025 1.50892e-15 0)
(-0.0025 9.79401e-16 0)
(-0.0025 4.69585e-16 0)
(-0.0025 1.06017e-16 0)
(-0.0025 -1.17789e-17 0)
(-0.0025 6.7271e-17 0)
(-0.0025 -1.0817e-16 0)
(-0.0025 -4.30417e-16 0)
(-0.0025 9.63139e-10 0)
(-0.0025 -2.31092e-10 0)
(-0.0025 5.47955e-11 0)
(-0.0025 -1.31347e-11 0)
(-0.0025 3.1441e-12 0)
(-0.0025 -7.41137e-13 0)
(-0.0025 1.85978e-13 0)
(-0.0025 -3.80795e-14 0)
(-0.0025 1.4202e-14 0)
(-0.0025 5.93574e-16 0)
(-0.0025 2.97949e-15 0)
(-0.0025 1.64923e-15 0)
(-0.0025 1.32481e-15 0)
(-0.0025 8.08542e-16 0)
(-0.0025 4.0961e-16 0)
(-0.0025 1.08103e-16 0)
(-0.0025 1.56837e-17 0)
(-0.0025 8.68917e-17 0)
(-0.0025 -6.99546e-17 0)
(-0.0025 -3.48918e-16 0)
(-0.0025 -9.73609e-10 0)
(-0.0025 2.33636e-10 0)
(-0.0025 -5.53594e-11 0)
(-0.0025 1.33065e-11 0)
(-0.0025 -3.15925e-12 0)
(-0.0025 7.64708e-13 0)
(-0.0025 -1.76623e-13 0)
(-0.0025 4.7533e-14 0)
(-0.0025 -7.32632e-15 0)
(-0.0025 4.95841e-15 0)
(-0.0025 1.26798e-15 0)
(-0.0025 1.55479e-15 0)
(-0.0025 9.82269e-16 0)
(-0.0025 6.65565e-16 0)
(-0.0025 3.45384e-16 0)
(-0.0025 1.25275e-16 0)
(-0.0025 5.16831e-17 0)
(-0.0025 9.23523e-17 0)
(-0.0025 -3.07463e-17 0)
(-0.0025 -2.63327e-16 0)
(-0.0025 9.80756e-10 0)
(-0.0025 -2.35288e-10 0)
(-0.0025 5.57806e-11 0)
(-0.0025 -1.33572e-11 0)
(-0.0025 3.19472e-12 0)
(-0.0025 -7.5403e-13 0)
(-0.0025 1.85941e-13 0)
(-0.0025 -4.06587e-14 0)
(-0.0025 1.24477e-14 0)
(-0.0025 -9.29207e-16 0)
(-0.0025 1.77497e-15 0)
(-0.0025 7.29993e-16 0)
(-0.0025 6.6041e-16 0)
(-0.0025 3.92437e-16 0)
(-0.0025 2.12671e-16 0)
(-0.0025 7.10608e-17 0)
(-0.0025 3.02791e-17 0)
(-0.0025 8.62471e-17 0)
(-0.0025 1.72389e-17 0)
(-0.0025 -1.69237e-16 0)
(-0.0025 -9.86449e-10 0)
(-0.0025 2.3789e-10 0)
(-0.0025 -5.64022e-11 0)
(-0.0025 1.36072e-11 0)
(-0.0025 -3.24976e-12 0)
(-0.0025 7.81557e-13 0)
(-0.0025 -1.8688e-13 0)
(-0.0025 4.60616e-14 0)
(-0.0025 -1.02539e-14 0)
(-0.0025 3.12506e-15 0)
(-0.0025 -2.8904e-16 0)
(-0.0025 4.04119e-16 0)
(-0.0025 1.31568e-16 0)
(-0.0025 1.08721e-16 0)
(-0.0025 3.86692e-17 0)
(-0.0025 5.54895e-19 0)
(-0.0025 -1.57874e-18 0)
(-0.0025 3.64967e-17 0)
(-0.0025 2.22576e-17 0)
(-0.0025 -5.88548e-17 0)
)
;

boundaryField
{
    movingWall
    {
        type            calculated;
        value           uniform (-0.0025 -0 -0);
    }
    fixedWalls
    {
        type            calculated;
        value           uniform (-0.0025 -0 -0);
    }
    frontAndBack
    {
        type            empty;
    }
}


// ************************************************************************* //
