/*--------------------------------*- C++ -*----------------------------------*\
| =========                 |                                                 |
| \\      /  F ield         | OpenFOAM: The Open Source CFD Toolbox           |
|  \\    /   O peration     | Version:  2506                                  |
|   \\  /    A nd           | Website:  www.openfoam.com                      |
|    \\/     M anipulation  |                                                 |
\*---------------------------------------------------------------------------*/
FoamFile
{
    version     2.0;
    format      ascii;
    arch        "LSB;label=32;scalar=64";
    class       volVectorField;
    location    "3.5";
    object      norm_U_composite;
}
// * * * * * * * * * * * * * * * * * * * * * * * * * * * * * * * * * * * * * //

dimensions      [0 0 0 0 0 0 0];

internalField   nonuniform List<vector> 
400
(
(-0.5 1.12684e-07 0)
(-0.5 -2.56456e-08 0)
(-0.5 6.07315e-09 0)
(-0.5 -1.38473e-09 0)
(-0.5 3.20845e-10 0)
(-0.5 -7.46654e-11 0)
(-0.5 1.67563e-11 0)
(-0.5 -3.99154e-12 0)
(-0.5 8.35558e-13 0)
(-0.5 -2.25939e-13 0)
(-0.5 3.25951e-14 0)
(-0.5 -1.65807e-14 0)
(-0.5 -3.43301e-15 0)
(-0.5 -9.51284e-15 0)
(-0.5 -1.40571e-14 0)
(-0.5 -1.72965e-14 0)
(-0.5 -1.5089e-14 0)
(-0.5 -1.08838e-14 0)
(-0.5 -9.30657e-15 0)
(-0.5 -1.29193e-14 0)
(-0.5 -1.15259e-07 0)
(-0.5 2.6205e-08 0)
(-0.5 -6.19469e-09 0)
(-0.5 1.40851e-09 0)
(-0.5 -3.26366e-10 0)
(-0.5 7.46682e-11 0)
(-0.5 -1.73561e-11 0)
(-0.5 3.64918e-12 0)
(-0.5 -1.01233e-12 0)
(-0.5 1.32202e-13 0)
(-0.5 -6.91249e-14 0)
(-0.5 -1.42397e-15 0)
(-0.5 -1.28499e-14 0)
(-0.5 -2.25781e-14 0)
(-0.5 -3.94055e-14 0)
(-0.5 -5.12654e-14 0)
(-0.5 -4.66824e-14 0)
(-0.5 -2.81003e-14 0)
(-0.5 -2.97059e-14 0)
(-0.5 -3.8256e-14 0)
(-0.5 1.20443e-07 0)
(-0.5 -2.7411e-08 0)
(-0.5 6.48799e-09 0)
(-0.5 -1.47936e-09 0)
(-0.5 3.40918e-10 0)
(-0.5 -8.0482e-11 0)
(-0.5 1.72134e-11 0)
(-0.5 -4.53294e-12 0)
(-0.5 7.52177e-13 0)
(-0.5 -2.83881e-13 0)
(-0.5 2.77379e-14 0)
(-0.5 -1.3075e-14 0)
(-0.5 -4.93484e-15 0)
(-0.5 -3.09267e-14 0)
(-0.5 -5.89436e-14 0)
(-0.5 -7.94238e-14 0)
(-0.5 -7.32309e-14 0)
(-0.5 -4.5574e-14 0)
(-0.5 -4.74327e-14 0)
(-0.5 -6.19718e-14 0)
(-0.5 -1.27746e-07 0)
(-0.5 2.91592e-08 0)
(-0.5 -6.92536e-09 0)
(-0.5 1.5683e-09 0)
(-0.5 -3.6975e-10 0)
(-0.5 8.31183e-11 0)
(-0.5 -1.99753e-11 0)
(-0.5 4.066e-12 0)
(-0.5 -1.16585e-12 0)
(-0.5 1.85123e-13 0)
(-0.5 -3.97265e-14 0)
(-0.5 3.36602e-14 0)
(-0.5 5.64884e-15 0)
(-0.5 -2.82544e-14 0)
(-0.5 -7.12688e-14 0)
(-0.5 -1.01601e-13 0)
(-0.5 -9.56631e-14 0)
(-0.5 -5.79262e-14 0)
(-0.5 -6.28261e-14 0)
(-0.5 -8.35587e-14 0)
(-0.5 1.35484e-07 0)
(-0.5 -3.13568e-08 0)
(-0.5 7.41559e-09 0)
(-0.5 -1.70996e-09 0)
(-0.5 3.97165e-10 0)
(-0.5 -9.34136e-11 0)
(-0.5 2.05538e-11 0)
(-0.5 -5.16726e-12 0)
(-0.5 1.04599e-12 0)
(-0.5 -2.19195e-13 0)
(-0.5 1.28147e-13 0)
(-0.5 5.30306e-14 0)
(-0.5 3.90889e-14 0)
(-0.5 -1.77023e-14 0)
(-0.5 -7.43589e-14 0)
(-0.5 -1.15281e-13 0)
(-0.5 -1.10325e-13 0)
(-0.5 -6.73269e-14 0)
(-0.5 -7.46187e-14 0)
(-0.5 -1.02174e-13 0)
(-0.5 -1.41804e-07 0)
(-0.5 3.32209e-08 0)
(-0.5 -7.863e-09 0)
(-0.5 1.83587e-09 0)
(-0.5 -4.32087e-10 0)
(-0.5 1.00449e-10 0)
(-0.5 -2.35765e-11 0)
(-0.5 5.42211e-12 0)
(-0.5 -1.16122e-12 0)
(-0.5 4.35262e-13 0)
(-0.5 8.81618e-14 0)
(-0.5 1.39758e-13 0)
(-0.5 7.26131e-14 0)
(-0.5 5.02103e-15 0)
(-0.5 -6.89407e-14 0)
(-0.5 -1.20987e-13 0)
(-0.5 -1.1915e-13 0)
(-0.5 -7.12068e-14 0)
(-0.5 -8.28444e-14 0)
(-0.5 -1.17397e-13 0)
(-0.5 1.47712e-07 0)
(-0.5 -3.48682e-08 0)
(-0.5 8.25854e-09 0)
(-0.5 -1.94689e-09 0)
(-0.5 4.59798e-10 0)
(-0.5 -1.08355e-10 0)
(-0.5 2.55985e-11 0)
(-0.5 -5.77272e-12 0)
(-0.5 1.67474e-12 0)
(-0.5 -4.72171e-14 0)
(-0.5 3.26295e-13 0)
(-0.5 1.7647e-13 0)
(-0.5 1.27617e-13 0)
(-0.5 3.24391e-14 0)
(-0.5 -5.4979e-14 0)
(-0.5 -1.18333e-13 0)
(-0.5 -1.20142e-13 0)
(-0.5 -7.13722e-14 0)
(-0.5 -8.72249e-14 0)
(-0.5 -1.28927e-13 0)
(-0.5 -1.53431e-07 0)
(-0.5 3.63995e-08 0)
(-0.5 -8.62291e-09 0)
(-0.5 2.04504e-09 0)
(-0.5 -4.83935e-10 0)
(-0.5 1.15165e-10 0)
(-0.5 -2.67304e-11 0)
(-0.5 6.88568e-12 0)
(-0.5 -1.07304e-12 0)
(-0.5 7.72547e-13 0)
(-0.5 2.6379e-13 0)
(-0.5 2.86062e-13 0)
(-0.5 1.70176e-13 0)
(-0.5 6.83342e-14 0)
(-0.5 -3.55578e-14 0)
(-0.5 -1.0864e-13 0)
(-0.5 -1.15649e-13 0)
(-0.5 -6.7038e-14 0)
(-0.5 -8.79465e-14 0)
(-0.5 -1.36622e-13 0)
(-0.5 1.58984e-07 0)
(-0.5 -3.78305e-08 0)
(-0.5 8.9681e-09 0)
(-0.5 -2.1324e-09 0)
(-0.5 5.0756e-10 0)
(-0.5 -1.19599e-10 0)
(-0.5 2.93618e-11 0)
(-0.5 -6.1412e-12 0)
(-0.5 2.22688e-12 0)
(-0.5 1.50314e-13 0)
(-0.5 5.3213e-13 0)
(-0.5 3.13069e-13 0)
(-0.5 2.30506e-13 0)
(-0.5 1.01589e-13 0)
(-0.5 -1.12457e-14 0)
(-0.5 -9.36942e-14 0)
(-0.5 -1.05434e-13 0)
(-0.5 -5.94463e-14 0)
(-0.5 -8.5418e-14 0)
(-0.5 -1.40561e-13 0)
(-0.5 -1.64419e-07 0)
(-0.5 3.9223e-08 0)
(-0.5 -9.29497e-09 0)
(-0.5 2.21901e-09 0)
(-0.5 -5.2613e-10 0)
(-0.5 1.26514e-10 0)
(-0.5 -2.90547e-11 0)
(-0.5 7.95784e-12 0)
(-0.5 -9.61617e-13 0)
(-0.5 1.04543e-12 0)
(-0.5 4.22975e-13 0)
(-0.5 4.18422e-13 0)
(-0.5 2.6555e-13 0)
(-0.5 1.38522e-13 0)
(-0.5 1.37023e-14 0)
(-0.5 -7.47957e-14 0)
(-0.5 -9.16656e-14 0)
(-0.5 -4.92939e-14 0)
(-0.5 -7.98076e-14 0)
(-0.5 -1.41071e-13 0)
(-0.5 1.69582e-07 0)
(-0.5 -4.05189e-08 0)
(-0.5 9.6072e-09 0)
(-0.5 -2.29406e-09 0)
(-0.5 5.47671e-10 0)
(-0.5 -1.29007e-10 0)
(-0.5 3.22286e-11 0)
(-0.5 -6.45832e-12 0)
(-0.5 2.6214e-12 0)
(-0.5 2.94611e-13 0)
(-0.5 6.84133e-13 0)
(-0.5 4.19059e-13 0)
(-0.5 3.1486e-13 0)
(-0.5 1.66238e-13 0)
(-0.5 3.93579e-14 0)
(-0.5 -5.44469e-14 0)
(-0.5 -7.53477e-14 0)
(-0.5 -3.71134e-14 0)
(-0.5 -7.2132e-14 0)
(-0.5 -1.384e-13 0)
(-0.5 -1.74518e-07 0)
(-0.5 4.17618e-08 0)
(-0.5 -9.89756e-09 0)
(-0.5 2.37082e-09 0)
(-0.5 -5.627e-10 0)
(-0.5 1.35907e-10 0)
(-0.5 -3.10724e-11 0)
(-0.5 8.73825e-12 0)
(-0.5 -9.27315e-13 0)
(-0.5 1.21702e-12 0)
(-0.5 5.19024e-13 0)
(-0.5 5.02448e-13 0)
(-0.5 3.3033e-13 0)
(-0.5 1.93389e-13 0)
(-0.5 6.11106e-14 0)
(-0.5 -3.3488e-14 0)
(-0.5 -5.78712e-14 0)
(-0.5 -2.46794e-14 0)
(-0.5 -6.22175e-14 0)
(-0.5 -1.329e-13 0)
(-0.5 1.79033e-07 0)
(-0.5 -4.28781e-08 0)
(-0.5 1.01671e-08 0)
(-0.5 -2.43338e-09 0)
(-0.5 5.8175e-10 0)
(-0.5 -1.37062e-10 0)
(-0.5 3.44809e-11 0)
(-0.5 -6.81179e-12 0)
(-0.5 2.85997e-12 0)
(-0.5 3.47359e-13 0)
(-0.5 7.55216e-13 0)
(-0.5 4.66918e-13 0)
(-0.5 3.5784e-13 0)
(-0.5 2.06436e-13 0)
(-0.5 7.98218e-14 0)
(-0.5 -1.47833e-14 0)
(-0.5 -4.08181e-14 0)
(-0.5 -1.14591e-14 0)
(-0.5 -5.18102e-14 0)
(-0.5 -1.24708e-13 0)
(-0.5 -1.83207e-07 0)
(-0.5 4.39189e-08 0)
(-0.5 -1.04091e-08 0)
(-0.5 2.4979e-09 0)
(-0.5 -5.93246e-10 0)
(-0.5 1.43548e-10 0)
(-0.5 -3.28119e-11 0)
(-0.5 9.26994e-12 0)
(-0.5 -9.88327e-13 0)
(-0.5 1.27488e-12 0)
(-0.5 5.30719e-13 0)
(-0.5 5.18882e-13 0)
(-0.5 3.45966e-13 0)
(-0.5 2.16015e-13 0)
(-0.5 9.11978e-14 0)
(-0.5 1.89254e-15 0)
(-0.5 -2.47769e-14 0)
(-0.5 -7.2987e-16 0)
(-0.5 -4.052e-14 0)
(-0.5 -1.14082e-13 0)
(-0.5 1.86841e-07 0)
(-0.5 -4.48046e-08 0)
(-0.5 1.06238e-08 0)
(-0.5 -2.54574e-09 0)
(-0.5 6.09026e-10 0)
(-0.5 -1.43542e-10 0)
(-0.5 3.61511e-11 0)
(-0.5 -7.19013e-12 0)
(-0.5 2.94296e-12 0)
(-0.5 2.96762e-13 0)
(-0.5 7.32003e-13 0)
(-0.5 4.42037e-13 0)
(-0.5 3.45044e-13 0)
(-0.5 2.0842e-13 0)
(-0.5 9.73595e-14 0)
(-0.5 1.37194e-14 0)
(-0.5 -1.2091e-14 0)
(-0.5 8.89682e-15 0)
(-0.5 -3.06223e-14 0)
(-0.5 -1.01128e-13 0)
(-0.5 -1.9004e-07 0)
(-0.5 4.55918e-08 0)
(-0.5 -1.08051e-08 0)
(-0.5 2.59501e-09 0)
(-0.5 -6.16343e-10 0)
(-0.5 1.49217e-10 0)
(-0.5 -3.41768e-11 0)
(-0.5 9.5431e-12 0)
(-0.5 -1.14746e-12 0)
(-0.5 1.20751e-12 0)
(-0.5 4.47208e-13 0)
(-0.5 4.5635e-13 0)
(-0.5 3.01785e-13 0)
(-0.5 1.9588e-13 0)
(-0.5 9.39171e-14 0)
(-0.5 2.12035e-14 0)
(-0.5 -2.35578e-15 0)
(-0.5 1.34542e-14 0)
(-0.5 -2.1634e-14 0)
(-0.5 -8.60834e-14 0)
(-0.5 1.92628e-07 0)
(-0.5 -4.62183e-08 0)
(-0.5 1.09591e-08 0)
(-0.5 -2.62694e-09 0)
(-0.5 6.28821e-10 0)
(-0.5 -1.48227e-10 0)
(-0.5 3.71955e-11 0)
(-0.5 -7.61591e-12 0)
(-0.5 2.84041e-12 0)
(-0.5 1.18715e-13 0)
(-0.5 5.95899e-13 0)
(-0.5 3.29847e-13 0)
(-0.5 2.64962e-13 0)
(-0.5 1.61708e-13 0)
(-0.5 8.1922e-14 0)
(-0.5 2.16206e-14 0)
(-0.5 3.13673e-15 0)
(-0.5 1.73783e-14 0)
(-0.5 -1.39909e-14 0)
(-0.5 -6.97836e-14 0)
(-0.5 -1.94722e-07 0)
(-0.5 4.67273e-08 0)
(-0.5 -1.10719e-08 0)
(-0.5 2.66129e-09 0)
(-0.5 -6.31851e-10 0)
(-0.5 1.52942e-10 0)
(-0.5 -3.53246e-11 0)
(-0.5 9.50661e-12 0)
(-0.5 -1.46526e-12 0)
(-0.5 9.91683e-13 0)
(-0.5 2.53596e-13 0)
(-0.5 3.10958e-13 0)
(-0.5 1.96454e-13 0)
(-0.5 1.33113e-13 0)
(-0.5 6.90769e-14 0)
(-0.5 2.50549e-14 0)
(-0.5 1.03366e-14 0)
(-0.5 1.84705e-14 0)
(-0.5 -6.14926e-15 0)
(-0.5 -5.26653e-14 0)
(-0.5 1.96151e-07 0)
(-0.5 -4.70575e-08 0)
(-0.5 1.11561e-08 0)
(-0.5 -2.67144e-09 0)
(-0.5 6.38944e-10 0)
(-0.5 -1.50806e-10 0)
(-0.5 3.71882e-11 0)
(-0.5 -8.13173e-12 0)
(-0.5 2.48953e-12 0)
(-0.5 -1.85841e-13 0)
(-0.5 3.54994e-13 0)
(-0.5 1.45999e-13 0)
(-0.5 1.32082e-13 0)
(-0.5 7.84873e-14 0)
(-0.5 4.25341e-14 0)
(-0.5 1.42122e-14 0)
(-0.5 6.05581e-15 0)
(-0.5 1.72494e-14 0)
(-0.5 3.44778e-15 0)
(-0.5 -3.38473e-14 0)
(-0.5 -1.9729e-07 0)
(-0.5 4.75781e-08 0)
(-0.5 -1.12804e-08 0)
(-0.5 2.72145e-09 0)
(-0.5 -6.49952e-10 0)
(-0.5 1.56311e-10 0)
(-0.5 -3.73759e-11 0)
(-0.5 9.21231e-12 0)
(-0.5 -2.05077e-12 0)
(-0.5 6.25011e-13 0)
(-0.5 -5.7808e-14 0)
(-0.5 8.08237e-14 0)
(-0.5 2.63136e-14 0)
(-0.5 2.17443e-14 0)
(-0.5 7.73385e-15 0)
(-0.5 1.10979e-16 0)
(-0.5 -3.15748e-16 0)
(-0.5 7.29934e-15 0)
(-0.5 4.45153e-15 0)
(-0.5 -1.1771e-14 0)
)
;

boundaryField
{
    movingWall
    {
        type            calculated;
        value           uniform (-0.5 -0 -0);
    }
    fixedWalls
    {
        type            calculated;
        value           uniform (-0.5 -0 -0);
    }
    frontAndBack
    {
        type            empty;
    }
}


// ************************************************************************* //
