/*--------------------------------*- C++ -*----------------------------------*\
| =========                 |                                                 |
| \\      /  F ield         | OpenFOAM: The Open Source CFD Toolbox           |
|  \\    /   O peration     | Version:  2506                                  |
|   \\  /    A nd           | Website:  www.openfoam.com                      |
|    \\/     M anipulation  |                                                 |
\*---------------------------------------------------------------------------*/
FoamFile
{
    version     2.0;
    format      ascii;
    arch        "LSB;label=32;scalar=64";
    class       volScalarField;
    location    "3.5";
    object      norm_k_field;
}
// * * * * * * * * * * * * * * * * * * * * * * * * * * * * * * * * * * * * * //

dimensions      [0 0 0 0 0 0 0];

internalField   nonuniform List<scalar> 
400
(
4.02494e+10
70624.3
5.24709e+06
1.51154e+07
4.02472e+10
4.02468e+10
4.02464e+10
4.02461e+10
4.02458e+10
4.02455e+10
4.02453e+10
4.02451e+10
4.02449e+10
4.02448e+10
4.02447e+10
4.02446e+10
5.02666e+08
1.51478e+08
1.07154e+08
9.51697e+07
5.44722e+10
5.44714e+10
5.44493e+10
5.44404e+10
5.44242e+10
5.4417e+10
5.44026e+10
5.43968e+10
5.43844e+10
5.43798e+10
5.43694e+10
5.43659e+10
5.43576e+10
5.43551e+10
5.43491e+10
5.43474e+10
3.81719e+08
1.71978e+08
1.28401e+08
1.15775e+08
7.29541e+10
21303.9
755053
394939
7.28671e+10
7.28528e+10
7.28289e+10
7.28161e+10
7.27964e+10
7.27854e+10
7.27693e+10
7.27608e+10
7.2748e+10
7.27418e+10
7.27329e+10
2.69357e+09
2.75402e+08
1.72717e+08
1.40958e+08
1.30593e+08
8.736e+10
8.73575e+10
8.72974e+10
8.72749e+10
8.9505e+06
8.72129e+10
8.71773e+10
8.71593e+10
8.71302e+10
8.71145e+10
8.70909e+10
8.70784e+10
8.70596e+10
8.70508e+10
8.70369e+10
3.65672e+08
1.99783e+08
1.53807e+08
1.34246e+08
1.26975e+08
9.64019e+10
15439.6
373741
237838
9.62454e+10
1.13785e+07
9.61765e+10
9.61539e+10
9.61176e+10
9.60989e+10
9.60692e+10
9.60545e+10
9.6031e+10
4.34532e+09
3.33543e+08
1.92915e+08
1.47372e+08
1.27485e+08
1.17668e+08
1.1365e+08
132573
1.01546e+11
1.01465e+11
1.01432e+11
2.93959e+06
1.01347e+11
2.12709e+07
1.01274e+11
1.01233e+11
1.01212e+11
1.01179e+11
6.05419e+09
3.61054e+08
2.08766e+08
1.53824e+08
1.26709e+08
1.12489e+08
1.04898e+08
1.00144e+08
9.78488e+07
1.04463e+11
14105.5
430543
205512
1.04278e+11
4.94751e+06
1.04195e+11
6.62308e+07
1.53397e+09
1.33117e+08
1.47482e+08
1.2519e+08
1.157e+08
1.06125e+08
9.87855e+07
9.28747e+07
8.8941e+07
8.66157e+07
8.49773e+07
8.40059e+07
113407
1.06234e+11
1.06143e+11
1.06108e+11
2.21179e+06
1.06014e+11
9.75263e+06
6.4805e+07
3.84809e+07
5.85835e+07
5.97789e+07
6.61003e+07
6.90228e+07
7.14533e+07
7.24383e+07
7.26447e+07
7.29406e+07
7.33001e+07
7.30031e+07
7.25393e+07
1.07484e+11
14606.6
453911
207965
1.07287e+11
3.90296e+06
1.07199e+11
1.95172e+07
3.3996e+07
3.30303e+07
4.02905e+07
4.4873e+07
5.00227e+07
5.41367e+07
5.74429e+07
5.98349e+07
6.17349e+07
6.31543e+07
6.37312e+07
6.37206e+07
123107
1.08506e+11
1.08413e+11
1.08376e+11
2.06858e+06
1.08279e+11
7.29534e+06
2.08242e+07
1.94243e+07
2.63742e+07
2.99451e+07
3.50679e+07
3.96352e+07
4.41462e+07
4.79674e+07
5.10837e+07
5.37575e+07
5.58009e+07
5.66764e+07
5.67705e+07
1.09483e+11
16306
483128
228605
1.09277e+11
3.59815e+06
4.41715e+07
1.27189e+07
1.88691e+07
2.04737e+07
2.50049e+07
2.89619e+07
3.34265e+07
3.76904e+07
4.1627e+07
4.50169e+07
4.79196e+07
5.01216e+07
5.12347e+07
5.14809e+07
146328
1.10482e+11
1.10382e+11
1.10346e+11
2.10219e+06
1.10243e+11
6.33391e+06
1.35102e+07
1.40723e+07
1.83118e+07
2.1347e+07
2.53044e+07
2.92542e+07
3.3356e+07
3.71785e+07
4.05814e+07
4.35963e+07
4.5926e+07
4.70686e+07
4.7314e+07
1.11581e+11
19604.2
545994
270316
1.11369e+11
3.58311e+06
1.65971e+07
1.01289e+07
1.40005e+07
1.58532e+07
1.92897e+07
2.26404e+07
2.64316e+07
3.02664e+07
3.39794e+07
3.73585e+07
4.03453e+07
4.2628e+07
4.38275e+07
4.41415e+07
187147
1.12807e+11
1.12705e+11
1.12665e+11
2.26193e+06
3.0857e+07
5.95154e+06
1.0658e+07
1.1743e+07
1.49049e+07
1.75776e+07
2.0905e+07
2.43838e+07
2.80696e+07
3.16349e+07
3.49244e+07
3.78865e+07
4.01845e+07
4.13622e+07
4.1679e+07
1.14225e+11
25869.2
661807
348119
1.14002e+11
3.76957e+06
1.08679e+07
8.92295e+06
1.1805e+07
1.36965e+07
1.65934e+07
1.95847e+07
2.29596e+07
2.64652e+07
2.99249e+07
3.31522e+07
3.60567e+07
3.83004e+07
3.95049e+07
3.98672e+07
262453
1.1587e+11
1.15764e+11
1.1572e+11
2.56346e+06
1.14706e+07
5.92964e+06
9.33846e+06
1.06726e+07
1.32978e+07
1.57731e+07
1.8754e+07
2.1948e+07
2.53601e+07
2.87212e+07
3.18833e+07
3.47594e+07
3.70114e+07
3.82123e+07
3.85756e+07
1.17822e+11
39180.4
889249
504935
1.39443e+07
4.18342e+06
8.69723e+06
8.48305e+06
1.08529e+07
1.27789e+07
1.53926e+07
1.81958e+07
2.13393e+07
2.46573e+07
2.79644e+07
3.10947e+07
3.39479e+07
3.61845e+07
3.74073e+07
3.77822e+07
448696
1.20025e+11
1.1991e+11
1.19865e+11
3.13041e+06
7.81248e+06
6.30276e+06
8.89548e+06
1.04015e+07
1.27303e+07
1.51198e+07
1.79283e+07
2.09886e+07
2.42671e+07
2.75322e+07
3.06391e+07
3.35059e+07
3.57903e+07
3.70271e+07
3.73901e+07
1.22153e+11
79586.1
1.37479e+06
956929
7.08588e+06
5.07803e+06
7.81083e+06
8.5872e+06
1.05805e+07
1.25696e+07
1.50273e+07
1.77572e+07
2.08041e+07
2.40481e+07
2.72974e+07
3.04267e+07
3.33524e+07
3.56433e+07
3.68537e+07
3.72535e+07
968679
1.22885e+11
3.0181e+06
1.22881e+11
3.90178e+06
6.94167e+06
6.82399e+06
8.82299e+06
1.03933e+07
1.25695e+07
1.49382e+07
1.7688e+07
2.07153e+07
2.39556e+07
2.7212e+07
3.03824e+07
3.33312e+07
3.55565e+07
3.6735e+07
3.72127e+07
)
;

boundaryField
{
    movingWall
    {
        type            calculated;
        value           nonuniform List<scalar> 
20
(
968679
1.22885e+11
3.0181e+06
1.22881e+11
3.90178e+06
6.94167e+06
6.82399e+06
8.82299e+06
1.03933e+07
1.25695e+07
1.49382e+07
1.7688e+07
2.07153e+07
2.39556e+07
2.7212e+07
3.03824e+07
3.33312e+07
3.55565e+07
3.6735e+07
3.72127e+07
)
;
    }
    fixedWalls
    {
        type            calculated;
        value           nonuniform List<scalar> 
60
(
4.02494e+10
5.44722e+10
7.29541e+10
8.736e+10
9.64019e+10
132573
1.04463e+11
113407
1.07484e+11
123107
1.09483e+11
146328
1.11581e+11
187147
1.14225e+11
262453
1.17822e+11
448696
1.22153e+11
968679
9.51697e+07
1.15775e+08
1.30593e+08
1.26975e+08
1.1365e+08
9.78488e+07
8.40059e+07
7.25393e+07
6.37206e+07
5.67705e+07
5.14809e+07
4.7314e+07
4.41415e+07
4.1679e+07
3.98672e+07
3.85756e+07
3.77822e+07
3.73901e+07
3.72535e+07
3.72127e+07
4.02494e+10
70624.3
5.24709e+06
1.51154e+07
4.02472e+10
4.02468e+10
4.02464e+10
4.02461e+10
4.02458e+10
4.02455e+10
4.02453e+10
4.02451e+10
4.02449e+10
4.02448e+10
4.02447e+10
4.02446e+10
5.02666e+08
1.51478e+08
1.07154e+08
9.51697e+07
)
;
    }
    frontAndBack
    {
        type            empty;
    }
}


// ************************************************************************* //
