/*--------------------------------*- C++ -*----------------------------------*\
| =========                 |                                                 |
| \\      /  F ield         | OpenFOAM: The Open Source CFD Toolbox           |
|  \\    /   O peration     | Version:  2506                                  |
|   \\  /    A nd           | Website:  www.openfoam.com                      |
|    \\/     M anipulation  |                                                 |
\*---------------------------------------------------------------------------*/
FoamFile
{
    version     2.0;
    format      ascii;
    arch        "LSB;label=32;scalar=64";
    class       volScalarField;
    location    "3.5";
    object      P_A;
}
// * * * * * * * * * * * * * * * * * * * * * * * * * * * * * * * * * * * * * //

dimensions      [1 -1 -3 0 0 0 0];

internalField   nonuniform List<scalar> 
400
(
5.27064e-29
5.27024e-29
5.27001e-29
5.26965e-29
5.26949e-29
5.26917e-29
5.26904e-29
5.26882e-29
5.26871e-29
5.26854e-29
5.26842e-29
5.26832e-29
5.26823e-29
5.26816e-29
5.2681e-29
5.26806e-29
5.26803e-29
5.26801e-29
5.268e-29
5.268e-29
1.77227e-28
1.69786e-28
1.70156e-28
1.70315e-28
1.7065e-28
1.70835e-28
1.7119e-28
1.71398e-28
1.71774e-28
1.72005e-28
1.72401e-28
1.72655e-28
1.73072e-28
1.7335e-28
1.73789e-28
1.74089e-28
1.74552e-28
1.74874e-28
1.75113e-28
1.75527e-28
5.7134e-28
5.42646e-28
5.43944e-28
5.44517e-28
5.45745e-28
5.46393e-28
5.47725e-28
5.48449e-28
5.49879e-28
5.50691e-28
5.52205e-28
5.53117e-28
5.5471e-28
5.55726e-28
5.57407e-28
5.58518e-28
5.60285e-28
5.61497e-28
5.62407e-28
5.63978e-28
1.17596e-27
1.1099e-27
1.11262e-27
1.11387e-27
1.1165e-27
1.11793e-27
1.12082e-27
1.12244e-27
1.12558e-27
1.1274e-27
1.13076e-27
1.13283e-27
1.13638e-27
1.13871e-27
1.14246e-27
1.14504e-27
1.14903e-27
1.15185e-27
1.15391e-27
1.15752e-27
1.74461e-27
1.64054e-27
1.64465e-27
1.64643e-27
1.65044e-27
1.65258e-27
1.65698e-27
1.65945e-27
1.66423e-27
1.66708e-27
1.67222e-27
1.67546e-27
1.68094e-27
1.68459e-27
1.69045e-27
1.69447e-27
1.70071e-27
1.70514e-27
1.70837e-27
1.71404e-27
2.14875e-27
2.01661e-27
2.02163e-27
2.02381e-27
2.02885e-27
2.03146e-27
2.03691e-27
2.04006e-27
2.04598e-27
2.04958e-27
2.05601e-27
2.06009e-27
2.06696e-27
2.07159e-27
2.07894e-27
2.08407e-27
2.09192e-27
2.09756e-27
2.10164e-27
2.10884e-27
2.40641e-27
2.25599e-27
2.26163e-27
2.26407e-27
2.26963e-27
2.27262e-27
2.27873e-27
2.28232e-27
2.28894e-27
2.29308e-27
2.30026e-27
2.30494e-27
2.31268e-27
2.31795e-27
2.32624e-27
2.3321e-27
2.341e-27
2.34743e-27
2.35206e-27
2.36024e-27
2.57439e-27
2.41199e-27
2.41787e-27
2.42056e-27
2.42648e-27
2.42967e-27
2.43631e-27
2.44e-27
2.44729e-27
2.45157e-27
2.45943e-27
2.46436e-27
2.47282e-27
2.47839e-27
2.48742e-27
2.49367e-27
2.50329e-27
2.51021e-27
2.51521e-27
2.52404e-27
2.6974e-27
2.52616e-27
2.53237e-27
2.53512e-27
2.54139e-27
2.54471e-27
2.55163e-27
2.55562e-27
2.5631e-27
2.56777e-27
2.57587e-27
2.58121e-27
2.58995e-27
2.59595e-27
2.60534e-27
2.612e-27
2.62211e-27
2.62941e-27
2.63468e-27
2.64399e-27
2.80217e-27
2.62341e-27
2.62983e-27
2.63274e-27
2.6392e-27
2.64276e-27
2.64976e-27
2.65408e-27
2.66173e-27
2.66673e-27
2.67504e-27
2.68072e-27
2.68972e-27
2.69607e-27
2.7058e-27
2.71281e-27
2.72326e-27
2.73095e-27
2.73642e-27
2.74615e-27
2.90401e-27
2.71791e-27
2.72448e-27
2.72753e-27
2.73418e-27
2.73783e-27
2.74522e-27
2.74955e-27
2.75762e-27
2.76269e-27
2.77146e-27
2.77726e-27
2.78672e-27
2.79325e-27
2.8034e-27
2.81067e-27
2.82157e-27
2.82956e-27
2.83525e-27
2.84537e-27
3.01219e-27
2.81827e-27
2.82497e-27
2.82819e-27
2.83519e-27
2.83881e-27
2.84668e-27
2.85099e-27
2.85958e-27
2.86465e-27
2.8739e-27
2.8798e-27
2.88979e-27
2.89643e-27
2.90716e-27
2.9146e-27
2.92605e-27
2.9343e-27
2.94026e-27
2.9508e-27
3.13353e-27
2.93072e-27
2.93791e-27
2.94108e-27
2.94834e-27
2.95226e-27
2.96021e-27
2.96498e-27
2.97361e-27
2.97924e-27
2.98865e-27
2.99498e-27
3.00523e-27
3.01231e-27
3.02338e-27
3.03125e-27
3.04312e-27
3.05183e-27
3.05802e-27
3.06904e-27
3.27435e-27
3.06129e-27
3.06864e-27
3.07202e-27
3.07958e-27
3.08361e-27
3.09209e-27
3.09687e-27
3.10617e-27
3.1118e-27
3.12185e-27
3.12837e-27
3.13918e-27
3.14656e-27
3.15824e-27
3.16646e-27
3.17898e-27
3.18808e-27
3.1946e-27
3.20617e-27
3.44173e-27
3.21634e-27
3.22407e-27
3.22764e-27
3.23557e-27
3.23991e-27
3.24866e-27
3.25389e-27
3.26344e-27
3.2696e-27
3.28002e-27
3.28703e-27
3.29833e-27
3.30625e-27
3.31843e-27
3.32723e-27
3.34039e-27
3.35005e-27
3.35693e-27
3.36917e-27
3.6454e-27
3.40489e-27
3.41318e-27
3.41683e-27
3.42521e-27
3.42983e-27
3.43901e-27
3.44467e-27
3.45479e-27
3.46138e-27
3.47239e-27
3.47994e-27
3.49189e-27
3.50036e-27
3.51331e-27
3.52273e-27
3.53666e-27
3.54704e-27
3.55434e-27
3.5674e-27
3.89694e-27
3.63771e-27
3.64649e-27
3.65045e-27
3.65932e-27
3.66433e-27
3.67408e-27
3.68022e-27
3.69094e-27
3.69811e-27
3.70982e-27
3.71805e-27
3.73085e-27
3.73997e-27
3.75391e-27
3.76401e-27
3.77903e-27
3.79021e-27
3.79807e-27
3.81215e-27
4.19815e-27
3.91649e-27
3.92577e-27
3.93007e-27
3.93963e-27
3.94495e-27
3.95564e-27
3.96205e-27
3.97388e-27
3.98136e-27
3.99436e-27
4.00293e-27
4.01706e-27
4.02679e-27
4.04198e-27
4.05293e-27
4.06926e-27
4.08138e-27
4.08992e-27
4.10521e-27
4.50357e-27
4.20731e-27
4.21651e-27
4.22086e-27
4.23088e-27
4.23614e-27
4.24745e-27
4.25389e-27
4.26638e-27
4.27414e-27
4.28774e-27
4.29686e-27
4.31168e-27
4.32211e-27
4.33825e-27
4.35001e-27
4.36743e-27
4.38061e-27
4.38975e-27
4.40624e-27
4.6131e-27
4.61257e-27
4.6123e-27
4.61205e-27
4.61187e-27
4.61163e-27
4.61151e-27
4.61129e-27
4.61127e-27
4.61106e-27
4.61108e-27
4.61092e-27
4.61095e-27
4.61086e-27
4.61087e-27
4.61083e-27
4.61083e-27
4.61082e-27
4.61082e-27
4.61082e-27
)
;

boundaryField
{
    movingWall
    {
        type            calculated;
        value           nonuniform List<scalar> 
20
(
4.6131e-27
4.61257e-27
4.6123e-27
4.61205e-27
4.61187e-27
4.61163e-27
4.61151e-27
4.61129e-27
4.61127e-27
4.61106e-27
4.61108e-27
4.61092e-27
4.61095e-27
4.61086e-27
4.61087e-27
4.61083e-27
4.61083e-27
4.61082e-27
4.61082e-27
4.61082e-27
)
;
    }
    fixedWalls
    {
        type            calculated;
        value           nonuniform List<scalar> 
60
(
5.27064e-29
1.77227e-28
5.7134e-28
1.17596e-27
1.74461e-27
2.14875e-27
2.40641e-27
2.57439e-27
2.6974e-27
2.80217e-27
2.90401e-27
3.01219e-27
3.13353e-27
3.27435e-27
3.44173e-27
3.6454e-27
3.89694e-27
4.19815e-27
4.50357e-27
4.6131e-27
5.268e-29
1.75527e-28
5.63978e-28
1.15752e-27
1.71404e-27
2.10884e-27
2.36024e-27
2.52404e-27
2.64399e-27
2.74615e-27
2.84537e-27
2.9508e-27
3.06904e-27
3.20617e-27
3.36917e-27
3.5674e-27
3.81215e-27
4.10521e-27
4.40624e-27
4.61082e-27
5.27064e-29
5.27024e-29
5.27001e-29
5.26965e-29
5.26949e-29
5.26917e-29
5.26904e-29
5.26882e-29
5.26871e-29
5.26854e-29
5.26842e-29
5.26832e-29
5.26823e-29
5.26816e-29
5.2681e-29
5.26806e-29
5.26803e-29
5.26801e-29
5.268e-29
5.268e-29
)
;
    }
    frontAndBack
    {
        type            empty;
    }
}


// ************************************************************************* //
