/*--------------------------------*- C++ -*----------------------------------*\
| =========                 |                                                 |
| \\      /  F ield         | OpenFOAM: The Open Source CFD Toolbox           |
|  \\    /   O peration     | Version:  2506                                  |
|   \\  /    A nd           | Website:  www.openfoam.com                      |
|    \\/     M anipulation  |                                                 |
\*---------------------------------------------------------------------------*/
FoamFile
{
    version     2.0;
    format      ascii;
    arch        "LSB;label=32;scalar=64";
    class       surfaceScalarField;
    location    "3.5";
    object      PecletNoField;
}
// * * * * * * * * * * * * * * * * * * * * * * * * * * * * * * * * * * * * * //

dimensions      [0 0 0 0 0 0 0];

oriented        oriented;

internalField   nonuniform List<scalar> 
760
(
369.281
7.91719e-07
369.282
7.68491e-07
369.283
2.02877e-08
369.283
4.43433e-08
369.284
6.12659e-09
369.284
1.62659e-09
369.285
1.02363e-09
369.285
7.63666e-12
369.286
1.18308e-10
369.286
2.11113e-11
369.286
1.81356e-11
369.286
6.7081e-12
369.287
7.1989e-12
369.287
1.22683e-11
369.287
1.9885e-11
369.287
2.54803e-11
369.287
2.2817e-11
369.287
1.39293e-11
369.287
1.41554e-11
1.89032e-11
352.153
1.56482e-06
350.148
1.51117e-06
350.445
5.46287e-08
350.706
9.38836e-08
350.967
1.29655e-08
351.225
4.99032e-09
351.484
1.48851e-09
351.741
5.21817e-10
351.998
1.54783e-11
352.253
8.43089e-11
352.509
1.03868e-11
352.762
9.27978e-12
353.016
7.01751e-12
353.267
1.97556e-11
353.521
3.47832e-11
353.77
4.55156e-11
354.022
4.19473e-11
354.196
2.65298e-11
354.395
2.73907e-11
3.4859e-11
336.24
2.23789e-06
333.706
2.16261e-06
334.091
7.71422e-08
334.425
1.3038e-07
334.762
2.03393e-08
335.092
5.21008e-09
335.425
3.07686e-09
335.752
1.27038e-10
336.082
3.11562e-10
336.406
1.97351e-12
336.732
1.75712e-11
337.053
7.642e-12
337.376
2.45142e-12
337.693
2.07328e-11
338.012
4.4411e-11
338.326
6.14005e-11
338.643
5.70304e-11
338.863
3.45195e-11
339.112
3.69696e-11
4.93597e-11
325.919
2.87603e-06
322.996
2.72834e-06
323.443
7.74995e-08
323.831
1.79447e-07
324.222
2.14612e-08
324.605
9.29174e-09
324.991
2.81747e-09
325.37
7.52649e-10
325.753
1.71391e-10
326.128
6.81849e-11
326.506
3.77598e-11
326.878
2.08147e-11
327.252
1.3556e-11
327.619
1.68238e-11
327.99
4.84727e-11
328.352
7.11846e-11
328.719
6.77444e-11
328.974
4.20576e-11
329.262
4.57891e-11
6.09476e-11
320.131
3.06183e-06
316.979
2.87945e-06
317.463
6.1363e-08
317.884
1.95992e-07
318.306
2.57648e-08
318.721
9.47748e-09
319.14
4.02827e-09
319.55
5.41747e-10
319.963
3.10871e-10
320.369
1.2591e-10
320.778
4.9318e-11
321.179
6.44961e-11
321.583
3.24627e-11
321.979
5.11133e-12
322.379
4.71943e-11
322.771
7.71212e-11
323.166
7.47294e-11
323.443
4.46819e-11
323.752
5.09405e-11
7.1688e-11
317.034
3.15771e-06
313.761
2.94844e-06
314.266
4.72538e-08
314.702
2.02097e-07
315.141
2.50043e-08
315.575
1.04323e-08
316.009
4.05835e-09
316.436
6.41269e-10
316.867
4.65348e-10
317.289
4.97701e-11
317.714
1.47634e-10
318.132
9.18491e-11
318.552
6.34048e-11
318.964
9.97025e-12
319.38
4.05524e-11
319.788
7.69192e-11
320.199
7.70336e-11
320.486
4.68757e-11
320.808
5.54396e-11
7.91631e-11
315.342
3.18009e-06
312.002
2.96013e-06
312.516
4.0571e-08
312.965
2.02385e-07
313.414
2.43161e-08
313.856
1.05594e-08
314.299
3.83364e-09
314.735
9.17893e-10
315.175
1.36331e-10
315.606
3.01558e-10
316.04
1.63962e-10
316.466
1.51236e-10
316.896
9.10975e-11
317.317
3.13089e-11
317.742
2.97683e-11
318.157
7.32578e-11
318.577
7.59157e-11
318.871
4.41095e-11
319.198
5.59933e-11
8.5627e-11
314.33
3.11892e-06
310.954
2.90434e-06
311.475
3.70493e-08
311.928
1.97269e-07
312.383
2.43737e-08
312.829
9.64083e-09
313.279
4.40775e-09
313.721
3.41017e-10
314.165
6.88772e-10
314.602
2.11818e-10
315.041
2.6975e-10
315.472
1.80428e-10
315.906
1.2698e-10
316.333
5.20235e-11
316.762
1.56536e-11
317.183
6.44693e-11
317.608
7.05772e-11
317.906
4.13917e-11
318.237
5.60923e-11
8.84043e-11
313.632
3.04185e-06
310.228
2.82266e-06
310.754
3.36844e-08
311.21
1.92799e-07
311.669
2.20428e-08
312.119
1.04412e-08
312.572
3.29055e-09
313.018
1.14017e-09
313.466
7.61488e-11
313.907
4.4915e-10
314.35
2.78494e-10
314.785
2.35787e-10
315.223
1.53561e-10
315.652
7.54885e-11
316.085
4.44107e-14
316.509
5.42446e-11
316.937
6.31865e-11
317.237
3.43883e-11
317.571
5.24705e-11
9.02374e-11
313.061
2.87492e-06
309.636
2.67671e-06
310.165
3.19739e-08
310.624
1.80635e-07
311.085
2.25124e-08
311.54
8.45513e-09
311.997
4.35315e-09
312.445
7.54944e-11
312.896
8.24504e-10
313.339
3.4646e-10
313.785
3.65788e-10
314.223
2.55462e-10
314.664
1.83377e-10
315.096
9.46602e-11
315.532
1.61506e-11
315.959
4.0963e-11
316.39
5.3036e-11
316.691
2.83652e-11
317.028
4.8973e-11
8.87288e-11
312.526
2.71687e-06
309.082
2.51723e-06
309.614
2.88023e-08
310.076
1.71855e-07
310.542
1.91856e-08
310.998
9.60685e-09
311.458
2.68903e-09
311.909
1.22899e-09
312.363
2.42875e-10
312.808
5.39161e-10
313.257
3.57536e-10
313.697
2.94194e-10
314.14
2.00358e-10
314.575
1.13029e-10
315.014
3.11698e-11
315.443
2.84402e-11
315.877
4.2691e-11
316.18
1.93794e-11
316.519
4.24103e-11
8.65105e-11
311.977
2.47038e-06
308.515
2.30074e-06
309.051
2.67649e-08
309.514
1.54493e-07
309.983
1.96019e-08
310.442
6.98736e-09
310.904
3.9942e-09
311.358
1.22188e-10
311.814
8.63259e-10
312.264
4.24714e-10
312.715
4.14116e-10
313.157
2.96928e-10
313.603
2.16487e-10
314.041
1.2442e-10
314.482
4.38752e-11
314.914
1.51981e-11
315.35
3.11146e-11
315.656
1.21932e-11
315.996
3.66959e-11
8.14733e-11
311.387
2.25307e-06
307.9
2.08469e-06
308.439
2.34097e-08
308.907
1.42474e-07
309.377
1.56388e-08
309.841
8.24479e-09
310.306
2.0456e-09
310.763
1.19829e-09
311.223
3.46391e-10
311.673
5.59926e-10
312.128
3.8506e-10
312.574
3.12075e-10
313.023
2.18293e-10
313.464
1.32341e-10
313.908
5.3339e-11
314.343
4.60267e-12
314.782
2.11546e-11
315.089
3.67827e-12
315.431
2.89972e-11
7.57288e-11
310.725
1.95158e-06
307.215
1.81832e-06
307.759
2.06841e-08
308.23
1.2146e-07
308.705
1.58631e-08
309.171
5.28661e-09
309.64
3.40032e-09
310.1
2.56326e-10
310.563
8.09855e-10
311.018
4.37525e-10
311.475
4.05233e-10
311.925
2.94331e-10
312.377
2.1631e-10
312.821
1.31794e-10
313.268
5.86459e-11
313.706
4.82701e-12
314.148
1.15785e-11
314.458
2.00276e-12
314.802
2.28502e-11
6.77678e-11
309.976
1.69396e-06
306.438
1.56415e-06
306.986
1.67231e-08
307.461
1.07209e-07
307.939
1.14534e-08
308.409
6.49538e-09
308.882
1.36806e-09
309.346
1.0593e-09
309.814
3.79968e-10
310.272
5.06718e-10
310.733
3.53773e-10
311.186
2.82089e-10
311.642
1.99782e-10
312.09
1.25895e-10
312.541
5.94469e-11
312.982
1.06094e-11
313.428
4.76922e-12
313.74
7.23376e-12
314.088
1.62277e-11
5.90095e-11
309.111
1.36648e-06
305.539
1.27505e-06
306.092
1.50712e-08
306.573
8.45746e-08
307.056
1.17996e-08
307.531
3.47613e-09
308.009
2.63843e-09
308.476
3.13836e-10
308.948
6.64633e-10
309.411
3.75834e-10
309.876
3.32845e-10
310.333
2.413e-10
310.794
1.77339e-10
311.246
1.11406e-10
311.701
5.52816e-11
312.147
1.39903e-11
312.597
7.54495e-13
312.912
9.47989e-12
313.263
1.14368e-11
4.88371e-11
308.104
1.08601e-06
304.495
9.98776e-07
305.053
9.4426e-09
305.54
6.9549e-08
306.028
7.02083e-09
306.509
4.53907e-09
306.992
7.37673e-10
307.466
8.03827e-10
307.942
3.17047e-10
308.41
3.6991e-10
308.881
2.55381e-10
309.342
2.00139e-10
309.809
1.41835e-10
310.265
9.11325e-11
310.725
4.644e-11
311.176
1.38144e-11
311.631
3.15054e-12
311.949
1.05587e-11
312.304
6.23417e-12
3.81288e-11
306.982
7.43516e-07
303.335
6.97294e-07
303.9
8.61828e-09
304.392
4.38523e-08
304.886
6.95694e-09
305.371
1.50591e-09
305.859
1.56827e-09
306.338
2.62111e-10
306.821
3.90731e-10
307.293
2.26675e-10
307.77
1.90507e-10
308.237
1.37369e-10
308.708
1.00347e-10
309.17
6.40294e-11
309.635
3.34361e-11
310.091
1.12208e-11
310.552
4.75344e-12
310.874
1.12428e-11
311.233
7.30572e-13
2.68464e-11
306.036
5.44792e-07
302.439
5.24634e-07
302.984
2.60572e-08
303.457
4.21043e-08
303.935
6.44496e-09
304.405
3.11829e-09
304.881
6.38567e-10
305.348
4.34225e-10
305.82
9.23442e-11
306.286
1.48522e-10
306.755
9.08781e-11
307.217
7.33422e-11
307.684
5.10405e-11
308.143
3.31978e-11
308.606
1.75315e-11
309.063
6.5943e-12
309.524
3.88307e-12
309.851
8.69958e-12
310.21
2.3772e-12
1.44772e-11
309.774
309.776
309.776
309.777
309.777
309.778
309.779
309.779
309.779
309.78
309.78
309.78
309.78
309.78
309.78
309.78
309.78
309.78
309.78
)
;

boundaryField
{
    movingWall
    {
        type            calculated;
        value           uniform 0;
    }
    fixedWalls
    {
        type            calculated;
        value           nonuniform List<scalar> 
60
(
250
250
250
250
250
250
250
250
250
250
250
250
250
250
250
250
250
250
250
250
250
250
250
250
250
250
250
250
250
250
250
250
250
250
250
250
250
250
250
250
0
0
0
0
0
0
0
0
0
0
0
0
0
0
0
0
0
0
0
0
)
;
    }
    frontAndBack
    {
        type            empty;
    }
}


// ************************************************************************* //
