/*--------------------------------*- C++ -*----------------------------------*\
| =========                 |                                                 |
| \\      /  F ield         | OpenFOAM: The Open Source CFD Toolbox           |
|  \\    /   O peration     | Version:  2506                                  |
|   \\  /    A nd           | Website:  www.openfoam.com                      |
|    \\/     M anipulation  |                                                 |
\*---------------------------------------------------------------------------*/
FoamFile
{
    version     2.0;
    format      ascii;
    arch        "LSB;label=32;scalar=64";
    class       surfaceScalarField;
    location    "3.5";
    object      phi;
}
// * * * * * * * * * * * * * * * * * * * * * * * * * * * * * * * * * * * * * //

dimensions      [0 3 -1 0 0 0 0];

oriented        oriented;

internalField   nonuniform List<scalar> 
760
(
-5e-05
-1.09448e-13
-5e-05
1.06928e-13
-5e-05
-2.82109e-15
-5e-05
6.16456e-15
-5e-05
-8.51277e-16
-5e-05
2.25954e-16
-5e-05
-1.42124e-16
-5e-05
-1.06003e-18
-5e-05
-1.64141e-17
-5e-05
-2.92821e-18
-5e-05
-2.51427e-18
-5e-05
-9.29741e-19
-5e-05
-9.973e-19
-5e-05
-1.69913e-18
-5e-05
-2.75277e-18
-5e-05
-3.52637e-18
-5e-05
-3.15639e-18
-5e-05
-1.92636e-18
-5e-05
-1.95719e-18
-2.61273e-18
-5e-05
2.25753e-13
-5e-05
-2.21263e-13
-5e-05
7.9873e-15
-5e-05
-1.37187e-14
-5e-05
1.89238e-15
-5e-05
-7.27931e-16
-5e-05
2.16881e-16
-5e-05
-7.59847e-17
-5e-05
2.25138e-18
-5e-05
-1.22556e-17
-5e-05
-1.50824e-18
-5e-05
-1.34667e-18
-5e-05
-1.01729e-18
-5e-05
-2.86207e-18
-5e-05
-5.03401e-18
-5e-05
-6.58304e-18
-5e-05
-6.0609e-18
-5e-05
-3.83075e-18
-5e-05
-3.9531e-18
-5.02689e-18
-5e-05
-3.34927e-13
-5e-05
3.29697e-13
-5e-05
-1.17395e-14
-5e-05
1.98266e-14
-5e-05
-3.08842e-15
-5e-05
7.9053e-16
-5e-05
-4.66192e-16
-5e-05
1.92335e-17
-5e-05
-4.71053e-17
-5e-05
2.98144e-19
-5e-05
-2.65098e-18
-5e-05
1.15205e-18
-5e-05
-3.69073e-19
-5e-05
-3.11896e-18
-5e-05
-6.67249e-18
-5e-05
-9.21765e-18
-5e-05
-8.55103e-18
-5e-05
-5.17155e-18
-5e-05
-5.53524e-18
-7.38295e-18
-5e-05
4.40517e-13
-5e-05
-4.26796e-13
-5e-05
1.20984e-14
-5e-05
-2.79894e-14
-5e-05
3.34184e-15
-5e-05
-1.44562e-15
-5e-05
4.37634e-16
-5e-05
-1.16806e-16
-5e-05
2.65568e-17
-5e-05
-1.05557e-17
-5e-05
5.83666e-18
-5e-05
3.21451e-18
-5e-05
2.0904e-18
-5e-05
-2.59195e-18
-5e-05
-7.45711e-18
-5e-05
-1.0941e-17
-5e-05
-1.03977e-17
-5e-05
-6.44912e-18
-5e-05
-7.01645e-18
-9.32863e-18
-5e-05
-4.7512e-13
-5e-05
4.57034e-13
-5e-05
-9.71825e-15
-5e-05
3.10111e-14
-5e-05
-4.06939e-15
-5e-05
1.49551e-15
-5e-05
-6.34539e-16
-5e-05
8.52564e-17
-5e-05
-4.88399e-17
-5e-05
1.97624e-17
-5e-05
7.72807e-18
-5e-05
1.00967e-17
-5e-05
5.07381e-18
-5e-05
-7.98104e-19
-5e-05
-7.35772e-18
-5e-05
-1.20114e-17
-5e-05
-1.16215e-17
-5e-05
-6.94165e-18
-5e-05
-7.90812e-18
-1.11155e-17
-5e-05
4.93489e-13
-5e-05
-4.71718e-13
-5e-05
7.54281e-15
-5e-05
-3.22283e-14
-5e-05
3.98003e-15
-5e-05
-1.65894e-15
-5e-05
6.44185e-16
-5e-05
-1.0169e-16
-5e-05
7.36631e-17
-5e-05
7.87067e-18
-5e-05
2.3307e-17
-5e-05
1.44857e-17
-5e-05
9.98311e-18
-5e-05
1.56823e-18
-5e-05
-6.36826e-18
-5e-05
-1.20668e-17
-5e-05
-1.2066e-17
-5e-05
-7.33455e-18
-5e-05
-8.66788e-18
-1.23614e-17
-5e-05
-4.98997e-13
-5e-05
4.75733e-13
-5e-05
-6.50505e-15
-5e-05
3.24182e-14
-5e-05
-3.88756e-15
-5e-05
1.68653e-15
-5e-05
-6.11169e-16
-5e-05
1.46187e-16
-5e-05
-2.16737e-17
-5e-05
4.78924e-17
-5e-05
2.59946e-17
-5e-05
2.39523e-17
-5e-05
1.44034e-17
-5e-05
4.94509e-18
-5e-05
-4.69408e-18
-5e-05
-1.15396e-17
-5e-05
-1.19394e-17
-5e-05
-6.92972e-18
-5e-05
-8.78984e-18
-1.34244e-17
-5e-05
4.90655e-13
-5e-05
-4.68107e-13
-5e-05
5.95724e-15
-5e-05
-3.1688e-14
-5e-05
3.90767e-15
-5e-05
-1.5441e-15
-5e-05
7.04639e-16
-5e-05
-5.44607e-17
-5e-05
1.09798e-16
-5e-05
3.37315e-17
-5e-05
4.28813e-17
-5e-05
2.86522e-17
-5e-05
2.01302e-17
-5e-05
8.23857e-18
-5e-05
-2.47484e-18
-5e-05
-1.01817e-17
-5e-05
-1.11286e-17
-5e-05
-6.51949e-18
-5e-05
-8.82796e-18
-1.38952e-17
-5e-05
-4.79446e-13
-5e-05
4.55913e-13
-5e-05
-5.42764e-15
-5e-05
3.1035e-14
-5e-05
-3.54135e-15
-5e-05
1.67578e-15
-5e-05
-5.27118e-16
-5e-05
1.82461e-16
-5e-05
1.21635e-17
-5e-05
7.1671e-17
-5e-05
4.43598e-17
-5e-05
3.75182e-17
-5e-05
2.43921e-17
-5e-05
1.19781e-17
-5e-05
7.03506e-21
-5e-05
-8.5836e-18
-5e-05
-9.98238e-18
-5e-05
-5.42681e-18
-5e-05
-8.27373e-18
-1.42102e-17
-5e-05
4.53891e-13
-5e-05
-4.33146e-13
-5e-05
5.1615e-15
-5e-05
-2.91304e-14
-5e-05
3.62336e-15
-5e-05
-1.35947e-15
-5e-05
6.98588e-16
-5e-05
-1.21029e-17
-5e-05
1.31934e-16
-5e-05
5.5382e-17
-5e-05
5.83661e-17
-5e-05
4.07195e-17
-5e-05
2.91784e-17
-5e-05
1.5046e-17
-5e-05
2.56277e-18
-5e-05
-6.49293e-18
-5e-05
-8.39287e-18
-5e-05
-4.48379e-18
-5e-05
-7.73511e-18
-1.39958e-17
-5e-05
-4.29642e-13
-5e-05
4.08084e-13
-5e-05
-4.6579e-15
-5e-05
2.77644e-14
-5e-05
-3.09343e-15
-5e-05
1.54739e-15
-5e-05
-4.32294e-16
-5e-05
1.97369e-16
-5e-05
3.89318e-17
-5e-05
8.63339e-17
-5e-05
5.71476e-17
-5e-05
4.69729e-17
-5e-05
3.19345e-17
-5e-05
1.79958e-17
-5e-05
4.95429e-18
-5e-05
-4.51545e-18
-5e-05
-6.76698e-18
-5e-05
-3.06841e-18
-5e-05
-6.70951e-18
-1.36681e-17
-5e-05
3.91337e-13
-5e-05
-3.73706e-13
-5e-05
4.33669e-15
-5e-05
-2.50068e-14
-5e-05
3.16651e-15
-5e-05
-1.12757e-15
-5e-05
6.4331e-16
-5e-05
1.9659e-17
-5e-05
1.3863e-16
-5e-05
6.81322e-17
-5e-05
6.63109e-17
-5e-05
4.74949e-17
-5e-05
3.4567e-17
-5e-05
1.98447e-17
-5e-05
6.98606e-18
-5e-05
-2.41724e-18
-5e-05
-4.94059e-18
-5e-05
-1.93393e-18
-5e-05
-5.8155e-18
-1.28944e-17
-5e-05
-3.57591e-13
-5e-05
3.39331e-13
-5e-05
-3.80102e-15
-5e-05
2.31095e-14
-5e-05
-2.53154e-15
-5e-05
1.33323e-15
-5e-05
-3.30139e-16
-5e-05
1.93188e-16
-5e-05
5.57388e-17
-5e-05
9.00034e-17
-5e-05
6.17811e-17
-5e-05
5.00167e-17
-5e-05
3.49237e-17
-5e-05
2.11493e-17
-5e-05
8.50941e-18
-5e-05
-7.33462e-19
-5e-05
-3.3655e-18
-5e-05
-5.84514e-19
-5e-05
-4.60415e-18
-1.20078e-17
-5e-05
3.10405e-13
-5e-05
-2.96684e-13
-5e-05
3.36642e-15
-5e-05
-1.97475e-14
-5e-05
2.57386e-15
-5e-05
-8.56868e-16
-5e-05
5.50045e-16
-5e-05
4.14197e-17
-5e-05
1.30613e-16
-5e-05
7.04877e-17
-5e-05
6.51638e-17
-5e-05
4.72784e-17
-5e-05
3.46832e-17
-5e-05
2.11084e-17
-5e-05
9.37652e-18
-5e-05
7.7089e-19
-5e-05
-1.84603e-18
-5e-05
3.18943e-19
-5e-05
-3.63592e-18
-1.07684e-17
-5e-05
-2.70093e-13
-5e-05
2.55915e-13
-5e-05
-2.72918e-15
-5e-05
1.74779e-14
-5e-05
-1.86336e-15
-5e-05
1.05561e-15
-5e-05
-2.21887e-16
-5e-05
1.71624e-16
-5e-05
6.14413e-17
-5e-05
8.18481e-17
-5e-05
5.70355e-17
-5e-05
4.54286e-17
-5e-05
3.21147e-17
-5e-05
2.02149e-17
-5e-05
9.52849e-18
-5e-05
1.69861e-18
-5e-05
-7.62269e-19
-5e-05
1.15484e-18
-5e-05
-2.58851e-18
-9.39964e-18
-5e-05
2.18503e-13
-5e-05
-2.09281e-13
-5e-05
2.4674e-15
-5e-05
-1.38313e-14
-5e-05
1.92568e-15
-5e-05
-5.66687e-16
-5e-05
4.29245e-16
-5e-05
5.10028e-17
-5e-05
1.07798e-16
-5e-05
6.08908e-17
-5e-05
5.38224e-17
-5e-05
3.8976e-17
-5e-05
2.85914e-17
-5e-05
1.79411e-17
-5e-05
8.88678e-18
-5e-05
2.24641e-18
-5e-05
1.2094e-19
-5e-05
1.51777e-18
-5e-05
-1.82953e-18
-7.80139e-18
-5e-05
-1.74223e-13
-5e-05
1.64533e-13
-5e-05
-1.55148e-15
-5e-05
1.14149e-14
-5e-05
-1.14986e-15
-5e-05
7.42594e-16
-5e-05
-1.20434e-16
-5e-05
1.3109e-16
-5e-05
5.16011e-17
-5e-05
6.01377e-17
-5e-05
4.14379e-17
-5e-05
3.24375e-17
-5e-05
2.29448e-17
-5e-05
1.47256e-17
-5e-05
7.49039e-18
-5e-05
2.22553e-18
-5e-05
5.06673e-19
-5e-05
1.69604e-18
-5e-05
-1.00052e-18
-6.1106e-18
-5e-05
1.19679e-13
-5e-05
-1.15257e-13
-5e-05
1.42085e-15
-5e-05
-7.22194e-15
-5e-05
1.14332e-15
-5e-05
-2.47213e-16
-5e-05
2.56927e-16
-5e-05
4.28931e-17
-5e-05
6.38146e-17
-5e-05
3.69787e-17
-5e-05
3.10188e-17
-5e-05
2.23408e-17
-5e-05
1.62894e-17
-5e-05
1.03817e-17
-5e-05
5.41152e-18
-5e-05
1.81386e-18
-5e-05
7.67062e-19
-5e-05
1.81204e-18
-5e-05
-1.17646e-19
-4.3169e-18
-5e-05
-8.78845e-14
-5e-05
8.57618e-14
-5e-05
-4.25408e-15
-5e-05
6.87025e-15
-5e-05
-1.05054e-15
-5e-05
5.0801e-16
-5e-05
-1.03925e-16
-5e-05
7.06295e-17
-5e-05
1.50056e-17
-5e-05
2.41205e-17
-5e-05
1.47448e-17
-5e-05
1.18927e-17
-5e-05
8.2687e-18
-5e-05
5.37494e-18
-5e-05
2.8359e-18
-5e-05
1.06605e-18
-5e-05
6.27199e-19
-5e-05
1.4043e-18
-5e-05
3.83564e-19
-2.33422e-18
-5e-05
-5e-05
-5e-05
-5e-05
-5e-05
-5e-05
-5e-05
-5e-05
-5e-05
-5e-05
-5e-05
-5e-05
-5e-05
-5e-05
-5e-05
-5e-05
-5e-05
-5e-05
-5e-05
)
;

boundaryField
{
    movingWall
    {
        type            calculated;
        value           uniform 0;
    }
    fixedWalls
    {
        type            calculated;
        value           nonuniform List<scalar> 
60
(
5e-05
5e-05
5e-05
5e-05
5e-05
5e-05
5e-05
5e-05
5e-05
5e-05
5e-05
5e-05
5e-05
5e-05
5e-05
5e-05
5e-05
5e-05
5e-05
5e-05
-5e-05
-5e-05
-5e-05
-5e-05
-5e-05
-5e-05
-5e-05
-5e-05
-5e-05
-5e-05
-5e-05
-5e-05
-5e-05
-5e-05
-5e-05
-5e-05
-5e-05
-5e-05
-5e-05
-5e-05
0
0
0
0
0
0
0
0
0
0
0
0
0
0
0
0
0
0
0
0
)
;
    }
    frontAndBack
    {
        type            empty;
    }
}


// ************************************************************************* //
