/*--------------------------------*- C++ -*----------------------------------*\
| =========                 |                                                 |
| \\      /  F ield         | OpenFOAM: The Open Source CFD Toolbox           |
|  \\    /   O peration     | Version:  2506                                  |
|   \\  /    A nd           | Website:  www.openfoam.com                      |
|    \\/     M anipulation  |                                                 |
\*---------------------------------------------------------------------------*/
FoamFile
{
    version     2.0;
    format      ascii;
    arch        "LSB;label=32;scalar=64";
    class       volScalarField;
    location    "3.5";
    object      pzeroGrad;
}
// * * * * * * * * * * * * * * * * * * * * * * * * * * * * * * * * * * * * * //

dimensions      [0 2 -2 0 0 0 0];

internalField   nonuniform List<scalar> 
400
(
0
5.699e-10
7.66957e-12
2.6617e-12
0
0
0
0
0
0
0
0
0
0
0
0
7.90622e-14
2.64679e-13
3.74575e-13
4.2187e-13
0
0
0
0
0
0
0
0
0
0
0
0
0
0
0
0
1.41366e-13
3.14988e-13
4.22219e-13
4.6837e-13
0
3.42435e-09
9.65636e-11
1.84573e-10
0
0
0
0
0
0
0
0
0
0
0
2.60009e-14
2.63063e-13
4.20042e-13
5.14892e-13
5.55833e-13
0
0
0
0
9.74515e-12
0
0
0
0
0
0
0
0
0
0
2.37004e-13
4.34588e-13
5.64774e-13
6.47195e-13
6.84306e-13
0
6.24356e-09
2.57733e-10
4.04879e-10
0
8.4553e-12
0
0
0
0
0
0
0
2.10974e-14
2.86831e-13
4.9661e-13
6.50321e-13
7.51895e-13
8.14682e-13
8.43505e-13
7.65994e-10
0
0
0
3.44858e-11
0
4.76129e-12
0
0
0
0
1.57095e-14
2.79114e-13
4.83391e-13
6.56282e-13
7.96873e-13
8.97639e-13
9.62627e-13
1.00834e-12
1.03199e-12
0
7.40549e-09
2.42422e-10
5.07695e-10
0
2.10697e-11
0
1.57184e-12
6.68799e-14
7.81053e-13
7.04634e-13
8.30151e-13
8.98075e-13
9.79081e-13
1.05169e-12
1.1186e-12
1.16798e-12
1.19931e-12
1.22241e-12
1.23654e-12
9.36789e-10
0
0
0
4.79446e-11
0
1.08639e-11
1.63364e-12
2.75074e-12
1.80608e-12
1.76935e-12
1.59975e-12
1.53158e-12
1.47925e-12
1.45885e-12
1.45457e-12
1.4485e-12
1.44133e-12
1.44714e-12
1.45637e-12
0
7.35824e-09
2.36581e-10
5.16193e-10
0
2.74792e-11
0
5.49016e-12
3.1501e-12
3.24156e-12
2.65629e-12
2.38454e-12
2.13835e-12
1.97554e-12
1.8614e-12
1.7868e-12
1.73158e-12
1.69256e-12
1.67716e-12
1.67741e-12
8.81442e-10
0
0
0
5.23587e-11
0
1.48331e-11
5.19461e-12
5.56647e-12
4.09861e-12
3.60834e-12
3.08063e-12
2.7247e-12
2.44591e-12
2.2505e-12
2.113e-12
2.00759e-12
1.93396e-12
1.90399e-12
1.90081e-12
0
6.71395e-09
2.26402e-10
4.78312e-10
0
3.03602e-11
2.47087e-12
8.58139e-12
5.78142e-12
5.32713e-12
4.35998e-12
3.76353e-12
3.25978e-12
2.89054e-12
2.61654e-12
2.41924e-12
2.27236e-12
2.17239e-12
2.12508e-12
2.11488e-12
7.55061e-10
0
0
0
5.24579e-11
0
1.73953e-11
8.15247e-12
7.82349e-12
6.01053e-12
5.15395e-12
4.34696e-12
3.7589e-12
3.29607e-12
2.95652e-12
2.70825e-12
2.52062e-12
2.39257e-12
2.33438e-12
2.32223e-12
0
5.6914e-09
2.04173e-10
4.12246e-10
0
3.10709e-11
6.70339e-12
1.0982e-11
7.94106e-12
7.0115e-12
5.75998e-12
4.90658e-12
4.20142e-12
3.66849e-12
3.26684e-12
2.97101e-12
2.75064e-12
2.60318e-12
2.5318e-12
2.51375e-12
6.02801e-10
0
0
0
4.97771e-11
3.64673e-12
1.89014e-11
1.05514e-11
9.57209e-12
7.53948e-12
6.39062e-12
5.37229e-12
4.60434e-12
3.99909e-12
3.54755e-12
3.21302e-12
2.96139e-12
2.79184e-12
2.71221e-12
2.69154e-12
0
4.41526e-09
1.72428e-10
3.27687e-10
0
3.02321e-11
1.04796e-11
1.27607e-11
9.64048e-12
8.30727e-12
6.85409e-12
5.80609e-12
4.95097e-12
4.29449e-12
3.79704e-12
3.42703e-12
3.15049e-12
2.96573e-12
2.87515e-12
2.84897e-12
4.41511e-10
0
0
0
4.51121e-11
1.00777e-11
1.94845e-11
1.23686e-11
1.0817e-11
8.6796e-12
7.31432e-12
6.15059e-12
5.2537e-12
4.54615e-12
4.01311e-12
3.61472e-12
3.31508e-12
3.11319e-12
3.01517e-12
2.98672e-12
0
3.00701e-09
1.32365e-10
2.33023e-10
8.43135e-12
2.80972e-11
1.35064e-11
1.38439e-11
1.08152e-11
9.18314e-12
7.62044e-12
6.44531e-12
5.49389e-12
4.75391e-12
4.19063e-12
3.76833e-12
3.45105e-12
3.23755e-12
3.13153e-12
3.10041e-12
2.67511e-10
0
0
0
3.82637e-11
1.53264e-11
1.89867e-11
1.34487e-11
1.14957e-11
9.39033e-12
7.90301e-12
6.66356e-12
5.69007e-12
4.9205e-12
4.33588e-12
3.89575e-12
3.56186e-12
3.33429e-12
3.22274e-12
3.19139e-12
0
1.53483e-09
8.8766e-11
1.27481e-10
1.72041e-11
2.39988e-11
1.55934e-11
1.41793e-11
1.15024e-11
9.67971e-12
8.0933e-12
6.84762e-12
5.8428e-12
5.05376e-12
4.45113e-12
3.99283e-12
3.64203e-12
3.4077e-12
3.2956e-12
3.26017e-12
1.26861e-10
0
4.07143e-11
0
3.14923e-11
1.77006e-11
1.80057e-11
1.39258e-11
1.18216e-11
9.77466e-12
8.22452e-12
6.94574e-12
5.93057e-12
5.12822e-12
4.51442e-12
4.04323e-12
3.68543e-12
3.45472e-12
3.34385e-12
3.30092e-12
)
;

boundaryField
{
    movingWall
    {
        type            zeroGradient;
    }
    fixedWalls
    {
        type            zeroGradient;
    }
    frontAndBack
    {
        type            empty;
    }
}


// ************************************************************************* //
