/*--------------------------------*- C++ -*----------------------------------*\
| =========                 |                                                 |
| \\      /  F ield         | OpenFOAM: The Open Source CFD Toolbox           |
|  \\    /   O peration     | Version:  2506                                  |
|   \\  /    A nd           | Website:  www.openfoam.com                      |
|    \\/     M anipulation  |                                                 |
\*---------------------------------------------------------------------------*/
FoamFile
{
    version     2.0;
    format      ascii;
    arch        "LSB;label=32;scalar=64";
    class       volScalarField;
    location    "3.5";
    object      QField;
}
// * * * * * * * * * * * * * * * * * * * * * * * * * * * * * * * * * * * * * //

dimensions      [0 0 -2 0 0 0 0];

internalField   nonuniform List<scalar> 
400
(
3.20851e-11
7.78636e-12
7.98282e-13
3.64433e-14
3.24273e-15
1.70885e-16
1.52791e-17
3.54905e-19
1.32271e-19
-1.1023e-20
3.43498e-21
-5.44025e-22
8.74043e-23
-1.95811e-22
-2.22011e-22
-2.09527e-22
-1.06858e-22
-2.98514e-23
-8.54118e-23
-9.62107e-23
6.17481e-11
1.469e-11
1.52774e-12
6.79805e-14
5.78717e-15
3.43196e-16
2.25768e-17
1.28642e-18
1.22395e-19
-3.93407e-22
9.02539e-22
-1.53655e-22
5.59126e-23
2.22834e-23
-5.33235e-23
-1.4911e-22
-1.39886e-22
-5.92979e-23
-7.35122e-23
-1.03197e-22
5.74296e-11
1.30814e-11
1.48138e-12
5.77483e-14
5.31837e-15
3.20945e-16
1.60304e-17
1.67427e-18
2.30444e-20
9.61271e-21
-9.96451e-22
5.17141e-23
5.79609e-23
1.39937e-22
4.44553e-23
-9.08397e-23
-1.17475e-22
-4.29837e-23
-5.06861e-23
-9.59173e-23
4.9646e-11
1.1076e-11
1.45967e-12
4.67474e-14
5.71647e-15
2.56518e-16
2.11002e-17
1.01881e-18
1.01781e-19
-1.40893e-21
-4.35871e-23
-1.98748e-22
1.53868e-22
2.37061e-22
1.64884e-22
-9.53716e-24
-9.44777e-23
-4.44162e-23
-3.18752e-23
-7.9089e-23
3.27637e-11
7.36817e-12
1.11724e-12
3.28878e-14
4.47421e-15
2.14674e-16
1.38282e-17
1.18774e-18
4.43758e-20
8.00516e-22
-3.55613e-22
-3.27123e-22
1.74522e-22
3.32999e-22
2.52625e-22
5.15145e-23
-7.50065e-23
-3.04009e-23
-5.57062e-24
-7.23057e-23
1.24657e-11
2.49983e-12
5.70996e-13
1.14349e-14
2.40699e-15
1.08609e-16
6.61812e-18
7.78442e-19
-2.08191e-20
5.94972e-21
-2.63517e-21
-2.23462e-23
1.14257e-22
3.70081e-22
3.11337e-22
9.38381e-23
-6.18403e-23
-2.90232e-23
1.22613e-23
-4.78905e-23
-6.1117e-12
-2.35805e-12
6.16476e-14
-1.41883e-14
2.04926e-16
-5.0384e-17
-5.21878e-19
-4.12399e-19
4.29188e-20
-1.58295e-20
1.18773e-21
-8.70282e-22
1.91713e-22
3.31101e-22
3.16178e-22
1.11102e-22
-5.56937e-23
-2.56494e-23
2.93354e-23
-4.20365e-23
-1.86421e-11
-5.33481e-12
-2.7857e-13
-2.83167e-14
-1.40038e-15
-1.16569e-16
-1.03605e-17
-1.78193e-19
-1.35405e-19
9.11423e-21
-4.47831e-21
1.25156e-22
-7.21161e-23
2.99067e-22
2.76452e-22
9.57584e-23
-5.80235e-23
-2.2497e-23
3.68199e-23
-3.21622e-23
-2.80642e-11
-7.65953e-12
-5.3432e-13
-4.06028e-14
-2.39756e-15
-2.08651e-16
-1.02293e-17
-1.34893e-18
2.40426e-20
-2.29648e-20
1.81438e-21
-1.15415e-21
5.73223e-23
1.52905e-22
2.13043e-22
7.40037e-23
-5.93116e-23
-2.83499e-23
3.87808e-23
-2.41438e-23
-3.50614e-11
-9.27743e-12
-7.37948e-13
-4.75535e-14
-3.36119e-15
-2.27984e-16
-1.81067e-17
-6.97287e-19
-1.73539e-19
9.0646e-21
-4.81573e-21
2.7833e-23
-2.93659e-22
8.88661e-23
1.25978e-22
2.91895e-23
-6.68132e-23
-2.07634e-23
3.9343e-23
-2.08592e-23
-4.0681e-11
-1.05677e-11
-9.01602e-13
-5.40596e-14
-3.91728e-15
-2.89314e-16
-1.58749e-17
-1.79285e-18
-1.56638e-21
-2.42071e-20
1.4754e-21
-1.26635e-21
-1.73222e-22
-7.52632e-23
4.78143e-23
3.23781e-25
-6.39805e-23
-2.93986e-23
3.0833e-23
-2.34222e-23
-4.52174e-11
-1.15708e-11
-1.04743e-12
-5.82113e-14
-4.61537e-15
-2.96314e-16
-2.25694e-17
-1.07563e-18
-1.85122e-19
6.58205e-21
-4.64232e-21
-2.87707e-22
-5.18619e-22
-1.44549e-22
-3.9673e-23
-3.97807e-23
-6.62655e-23
-1.8707e-23
3.00144e-23
-2.68699e-23
-4.86711e-11
-1.23064e-11
-1.15977e-12
-6.18686e-14
-4.9506e-15
-3.40695e-16
-1.95466e-17
-2.06615e-18
-2.44104e-20
-2.40773e-20
6.12806e-22
-1.41801e-21
-4.55506e-22
-2.90453e-22
-1.04191e-22
-6.10798e-23
-5.36437e-23
-2.26036e-23
1.87617e-23
-3.06127e-23
-5.16733e-11
-1.29619e-11
-1.26774e-12
-6.4534e-14
-5.48886e-15
-3.40374e-16
-2.55789e-17
-1.317e-18
-1.92917e-19
3.93973e-21
-4.71655e-21
-7.55756e-22
-7.53285e-22
-3.53142e-22
-1.68492e-22
-7.95845e-23
-4.70183e-23
-1.07583e-23
2.02431e-23
-4.14178e-23
-5.31858e-11
-1.31998e-11
-1.32875e-12
-6.56228e-14
-5.5968e-15
-3.71003e-16
-2.13722e-17
-2.25614e-18
-3.50887e-20
-2.47183e-20
-4.33437e-22
-1.70771e-21
-7.40758e-22
-4.45949e-22
-1.93284e-22
-8.02354e-23
-2.88717e-23
-8.57595e-24
7.95783e-24
-4.58372e-23
-5.41903e-11
-1.3355e-11
-1.37901e-12
-6.57379e-14
-5.90443e-15
-3.52308e-16
-2.69973e-17
-1.35202e-18
-1.97696e-19
1.33646e-21
-5.0349e-21
-1.32715e-21
-9.52974e-22
-4.72657e-22
-2.00427e-22
-6.50137e-23
-1.95287e-23
-2.06915e-24
1.12196e-23
-5.16006e-23
-5.56629e-11
-1.36913e-11
-1.43755e-12
-6.79693e-14
-5.97878e-15
-3.95902e-16
-2.19605e-17
-2.41262e-18
-4.61812e-20
-2.46648e-20
-1.8669e-21
-1.92583e-21
-8.99635e-22
-4.3526e-22
-1.41749e-22
-3.02326e-23
-8.69288e-24
2.05395e-24
3.69181e-24
-5.10919e-23
-5.32075e-11
-1.28695e-11
-1.4015e-12
-6.30615e-14
-6.11394e-15
-3.45649e-16
-2.82112e-17
-1.36313e-18
-1.97788e-19
-3.20063e-21
-5.40375e-21
-1.80667e-21
-1.0781e-21
-4.86291e-22
-1.65458e-22
-3.25202e-23
-4.52081e-24
-1.97523e-24
1.75963e-24
-6.00024e-23
-5.41045e-11
-1.21448e-11
-1.30379e-12
-5.44086e-14
-4.82516e-15
-3.16503e-16
-1.52687e-17
-1.78731e-18
-4.15818e-20
-1.9967e-20
-3.45251e-21
-2.54273e-21
-1.25776e-21
-6.34994e-22
-2.39084e-22
-5.99673e-23
6.4266e-24
-8.1521e-24
3.99985e-24
-7.57137e-23
-2.99494e-11
-6.48269e-12
-6.66506e-13
-2.82372e-14
-1.76971e-15
-2.28048e-16
9.85303e-18
-3.52426e-18
4.76666e-19
-9.22826e-20
1.12794e-20
-3.59595e-21
-4.96109e-22
-3.85843e-22
-1.15269e-22
-1.49243e-23
2.72309e-24
-3.15986e-23
-5.28714e-23
-8.02635e-23
)
;

boundaryField
{
    movingWall
    {
        type            calculated;
        value           nonuniform List<scalar> 
20
(
-1.98007e-12
-3.20329e-13
1.63932e-12
-1.30171e-14
7.24852e-15
-9.17546e-17
5.66338e-17
-6.04779e-18
1.30993e-18
-2.09336e-19
3.47447e-20
-6.07706e-21
5.20864e-22
-2.22366e-22
-2.36705e-23
-2.18715e-24
-3.07794e-24
-3.73852e-23
-1.08757e-22
-7.45029e-23
)
;
    }
    fixedWalls
    {
        type            calculated;
        value           nonuniform List<scalar> 
60
(
1.66282e-10
3.20488e-10
2.99552e-10
2.6105e-10
1.74908e-10
6.93501e-11
-2.76671e-11
-9.3424e-11
-1.43091e-10
-1.80176e-10
-2.10171e-10
-2.34545e-10
-2.5329e-10
-2.69665e-10
-2.78181e-10
-2.83973e-10
-2.92159e-10
-2.79582e-10
-2.84514e-10
-1.57854e-10
-3.88216e-23
-7.54728e-23
-7.59418e-23
-7.65065e-23
-8.40178e-23
-6.64263e-23
-7.17495e-23
-7.0411e-23
-5.80686e-23
-5.24824e-23
-5.67768e-23
-5.42569e-23
-5.63037e-23
-6.65177e-23
-6.76176e-23
-6.46339e-23
-5.17617e-23
-6.23538e-23
-8.99622e-23
-5.19741e-23
4.25907e-12
3.68039e-12
-5.58693e-13
1.88176e-14
-1.23645e-15
-5.80828e-17
8.27118e-18
-1.53748e-18
2.14021e-19
-3.59626e-20
7.51912e-21
-1.23763e-21
2.05292e-22
-3.65307e-22
-3.28662e-22
-2.21541e-22
-6.0976e-23
-8.76814e-24
-8.94926e-23
-8.02937e-23
)
;
    }
    frontAndBack
    {
        type            empty;
    }
}


// ************************************************************************* //
