/*--------------------------------*- C++ -*----------------------------------*\
| =========                 |                                                 |
| \\      /  F ield         | OpenFOAM: The Open Source CFD Toolbox           |
|  \\    /   O peration     | Version:  2506                                  |
|   \\  /    A nd           | Website:  www.openfoam.com                      |
|    \\/     M anipulation  |                                                 |
\*---------------------------------------------------------------------------*/
FoamFile
{
    version     2.0;
    format      ascii;
    arch        "LSB;label=32;scalar=64";
    class       surfaceScalarField;
    location    "3.5";
    object      surfaceK;
}
// * * * * * * * * * * * * * * * * * * * * * * * * * * * * * * * * * * * * * //

dimensions      [0 2 -2 0 0 0 0];

internalField   nonuniform List<scalar> 
760
(
4.02491e-05
4.73608e-05
4.02485e-05
4.73601e-05
4.0248e-05
4.73488e-05
4.02475e-05
4.7344e-05
4.0247e-05
4.73357e-05
4.02466e-05
4.73319e-05
4.02462e-05
4.73245e-05
4.02459e-05
4.73215e-05
4.02456e-05
4.73151e-05
4.02454e-05
4.73126e-05
4.02452e-05
4.73073e-05
4.0245e-05
4.73055e-05
4.02448e-05
4.73012e-05
4.02447e-05
4.72999e-05
4.02446e-05
4.72969e-05
4.02445e-05
4.7296e-05
4.02445e-05
4.72942e-05
4.02445e-05
4.72937e-05
4.02445e-05
4.72931e-05
4.7293e-05
5.44718e-05
6.37132e-05
5.44604e-05
6.37118e-05
5.44448e-05
6.36804e-05
5.44323e-05
6.36679e-05
5.44206e-05
6.36456e-05
5.44098e-05
6.36349e-05
5.43997e-05
6.36158e-05
5.43906e-05
6.36064e-05
5.43821e-05
6.35904e-05
5.43746e-05
6.35826e-05
5.43676e-05
6.35694e-05
5.43617e-05
6.35633e-05
5.43563e-05
6.35528e-05
5.43521e-05
6.35485e-05
5.43483e-05
6.3541e-05
5.43457e-05
6.3538e-05
5.43434e-05
6.35336e-05
5.43424e-05
6.3532e-05
5.43416e-05
6.35305e-05
6.353e-05
7.29531e-05
8.01571e-05
7.29318e-05
8.01548e-05
7.29034e-05
8.01044e-05
7.28813e-05
8.00852e-05
7.28599e-05
8.005e-05
7.28409e-05
8.00329e-05
7.28225e-05
8.00031e-05
7.28062e-05
7.99877e-05
7.27909e-05
7.99633e-05
7.27774e-05
7.99499e-05
7.27651e-05
7.99301e-05
7.27544e-05
7.99196e-05
7.27449e-05
7.99038e-05
7.27374e-05
7.98963e-05
7.27308e-05
7.98849e-05
7.2726e-05
7.988e-05
7.27222e-05
7.98733e-05
7.27201e-05
7.98706e-05
7.27188e-05
7.98683e-05
7.98675e-05
8.73588e-05
9.1881e-05
8.73275e-05
9.18777e-05
8.72862e-05
9.18117e-05
8.72539e-05
9.17855e-05
8.72229e-05
9.17392e-05
8.71951e-05
9.17165e-05
8.71683e-05
9.16769e-05
8.71448e-05
9.16566e-05
8.71223e-05
9.16239e-05
8.71027e-05
9.16067e-05
8.70847e-05
9.15801e-05
8.7069e-05
9.15665e-05
8.70552e-05
9.15453e-05
8.70439e-05
9.15355e-05
8.70342e-05
9.15204e-05
8.70274e-05
9.15139e-05
8.70217e-05
9.15051e-05
8.70188e-05
9.15014e-05
8.7017e-05
9.14984e-05
9.14973e-05
9.64e-05
9.89762e-05
9.6362e-05
9.8972e-05
9.63111e-05
9.88956e-05
9.62708e-05
9.88641e-05
9.62327e-05
9.88112e-05
9.61982e-05
9.87837e-05
9.61652e-05
9.87374e-05
9.61358e-05
9.87142e-05
9.61083e-05
9.86753e-05
9.6084e-05
9.86557e-05
9.60618e-05
9.86242e-05
9.60427e-05
9.86085e-05
9.60256e-05
9.85836e-05
9.60121e-05
9.85723e-05
9.60001e-05
9.85547e-05
9.59916e-05
9.85469e-05
9.59847e-05
9.85367e-05
9.5981e-05
9.85324e-05
9.59787e-05
9.8529e-05
9.85276e-05
0.000101548
0.000103007
0.000101506
0.000103002
0.000101449
0.000102919
0.000101404
0.000102885
0.000101362
0.000102827
0.000101323
0.000102797
0.000101286
0.000102747
0.000101254
0.000102722
0.000101223
0.000102679
0.000101196
0.000102659
0.000101171
0.000102624
0.000101149
0.000102607
0.00010113
0.00010258
0.000101115
0.000102568
0.000101102
0.000102548
0.000101092
0.00010254
0.000101084
0.000102529
0.00010108
0.000102524
0.000101078
0.00010252
0.000102519
0.000104461
0.000105351
0.000104416
0.000105346
0.000104356
0.000105258
0.000104308
0.000105223
0.000104263
0.000105162
0.000104221
0.000105131
0.000104183
0.000105078
0.000104148
0.000105052
0.000104115
0.000105008
0.000104087
0.000104985
0.00010406
0.000104949
0.000104037
0.000104931
0.000104017
0.000104903
0.000104001
0.00010489
0.000103986
0.00010487
0.000103976
0.000104861
0.000103968
0.000104849
0.000103964
0.000104844
0.000103961
0.00010484
0.000104839
0.000106236
0.000106861
0.000106189
0.000106856
0.000106126
0.000106765
0.000106077
0.000106729
0.00010603
0.000106666
0.000105988
0.000106634
0.000105947
0.00010658
0.000105911
0.000106552
0.000105877
0.000106507
0.000105847
0.000106484
0.00010582
0.000106447
0.000105797
0.000106428
0.000105776
0.0001064
0.000105759
0.000106386
0.000105744
0.000106365
0.000105733
0.000106356
0.000105725
0.000106344
0.000105721
0.000106339
0.000105718
0.000106335
0.000106333
0.000107481
0.000107998
0.000107433
0.000107993
0.000107369
0.0001079
0.000107318
0.000107863
0.00010727
0.000107799
0.000107227
0.000107766
0.000107186
0.00010771
0.000107148
0.000107683
0.000107114
0.000107634
0.000107083
0.000107613
0.000107055
0.000107573
0.000107031
0.000107556
0.00010701
0.000107525
0.000106992
0.000107513
0.000106977
0.00010749
0.000106967
0.000107482
0.000106958
0.000107469
0.000106953
0.000107464
0.00010695
0.00010746
0.000107458
0.000108509
0.000108997
0.000108459
0.000108992
0.000108394
0.000108897
0.000108343
0.00010886
0.000108295
0.000108794
0.000108249
0.000108761
0.000108207
0.000108703
0.000108169
0.000108676
0.000108134
0.000108627
0.000108103
0.000108605
0.000108074
0.000108564
0.00010805
0.000108547
0.000108028
0.000108515
0.00010801
0.000108503
0.000107995
0.00010848
0.000107984
0.000108471
0.000107975
0.000108458
0.00010797
0.000108453
0.000107967
0.000108449
0.000108447
0.00010948
0.000109985
0.00010943
0.00010998
0.000109363
0.000109882
0.000109311
0.000109845
0.000109261
0.000109778
0.000109215
0.000109743
0.000109172
0.000109686
0.000109134
0.000109657
0.000109098
0.000109609
0.000109066
0.000109584
0.000109037
0.000109544
0.000109012
0.000109525
0.00010899
0.000109495
0.000108972
0.00010948
0.000108956
0.000109458
0.000108945
0.000109449
0.000108936
0.000109436
0.000108931
0.000109431
0.000108928
0.000109426
0.000109424
0.000110485
0.000111034
0.000110432
0.000111029
0.000110364
0.00011093
0.000110312
0.000110891
0.000110261
0.000110824
0.000110215
0.000110788
0.000110171
0.00011073
0.000110132
0.0001107
0.000110095
0.00011065
0.000110062
0.000110626
0.000110033
0.000110585
0.000110008
0.000110566
0.000109985
0.000110535
0.000109967
0.00011052
0.000109951
0.000110498
0.000109939
0.000110488
0.00010993
0.000110474
0.000109925
0.000110469
0.000109922
0.000110465
0.000110463
0.000111578
0.000112197
0.000111526
0.000112191
0.000111457
0.000112091
0.000111403
0.000112051
0.000111351
0.000111982
0.000111304
0.000111946
0.000111259
0.000111886
0.000111219
0.000111856
0.000111182
0.000111805
0.000111149
0.000111781
0.000111119
0.000111738
0.000111093
0.000111719
0.00011107
0.000111686
0.000111051
0.000111672
0.000111034
0.000111649
0.000111023
0.000111639
0.000111013
0.000111625
0.000111009
0.00011162
0.000111006
0.000111615
0.000111614
0.00011281
0.000113519
0.000112756
0.000113513
0.000112685
0.00011341
0.00011263
0.00011337
0.000112576
0.000113298
0.000112528
0.000113262
0.000112483
0.0001132
0.000112442
0.00011317
0.000112404
0.000113117
0.00011237
0.000113092
0.000112339
0.000113049
0.000112312
0.000113029
0.000112288
0.000112996
0.00011227
0.000112981
0.000112253
0.000112957
0.000112241
0.000112947
0.000112232
0.000112933
0.000112227
0.000112928
0.000112223
0.000112923
0.000112921
0.000114222
0.000115051
0.000114167
0.000115045
0.000114095
0.000114939
0.000114038
0.000114897
0.000113984
0.000114824
0.000113934
0.000114787
0.000113887
0.000114722
0.000113845
0.000114693
0.000113806
0.000114637
0.000113772
0.000114613
0.00011374
0.000114567
0.000113713
0.000114549
0.000113688
0.000114513
0.000113669
0.000114499
0.000113651
0.000114473
0.000113639
0.000114464
0.000113629
0.000114448
0.000113624
0.000114444
0.000113621
0.000114439
0.000114437
0.000115873
0.000116849
0.000115817
0.000116843
0.000115742
0.000116735
0.000115683
0.000116691
0.000115627
0.000116615
0.000115576
0.000116578
0.000115528
0.00011651
0.000115485
0.00011648
0.000115444
0.000116422
0.000115409
0.000116398
0.000115376
0.00011635
0.000115349
0.000116331
0.000115323
0.000116294
0.000115303
0.00011628
0.000115285
0.000116253
0.000115273
0.000116243
0.000115263
0.000116227
0.000115258
0.000116223
0.000115254
0.000116217
0.000116216
0.000117819
0.000118927
0.000117761
0.000118921
0.000117684
0.000118808
0.000117623
0.000118763
0.000117565
0.000118684
0.000117512
0.000118646
0.000117462
0.000118576
0.000117417
0.000118544
0.000117375
0.000118485
0.000117339
0.000118459
0.000117305
0.000118411
0.000117277
0.00011839
0.00011725
0.000118353
0.00011723
0.000118337
0.000117211
0.00011831
0.000117198
0.0001183
0.000117188
0.000118283
0.000117182
0.000118278
0.000117179
0.000118273
0.000118271
0.000120029
0.000121092
0.000119968
0.000121088
0.000119888
0.000120973
0.000119825
0.000120928
0.000119764
0.000120849
0.00011971
0.000120808
0.000119658
0.00012074
0.000119612
0.000120705
0.000119568
0.000120648
0.000119531
0.000120618
0.000119496
0.000120571
0.000119466
0.000120548
0.000119439
0.000120511
0.000119417
0.000120494
0.000119398
0.000120468
0.000119385
0.000120456
0.000119374
0.00012044
0.000119368
0.000120434
0.000119365
0.000120429
0.000120427
0.000122152
0.000122521
0.000122093
0.000122518
0.000122013
0.000122459
0.000121952
0.000122436
0.000121893
0.000122397
0.000121838
0.000122375
0.000121787
0.000122341
0.000121741
0.000122323
0.000121698
0.000122294
0.000121659
0.000122279
0.000121624
0.000122255
0.000121594
0.000122243
0.000121566
0.000122225
0.000121544
0.000122215
0.000121525
0.000122203
0.000121512
0.000122196
0.000121501
0.000122189
0.000121495
0.000122185
0.000121491
0.000122183
0.000122182
0.000122887
0.000122884
0.000122882
0.000122881
0.000122879
0.000122878
0.000122877
0.000122876
0.000122875
0.000122875
0.000122874
0.000122874
0.000122874
0.000122873
0.000122873
0.000122873
0.000122873
0.000122873
0.000122873
)
;

boundaryField
{
    movingWall
    {
        type            calculated;
        value           nonuniform List<scalar> 
20
(
0.000122888
0.000122885
0.000122883
0.000122881
0.00012288
0.000122879
0.000122877
0.000122876
0.000122876
0.000122875
0.000122875
0.000122874
0.000122874
0.000122874
0.000122873
0.000122873
0.000122873
0.000122873
0.000122873
0.000122873
)
;
    }
    fixedWalls
    {
        type            calculated;
        value           nonuniform List<scalar> 
60
(
4.02494e-05
5.44722e-05
7.29541e-05
8.736e-05
9.64019e-05
0.000101551
0.000104463
0.000106239
0.000107484
0.000108511
0.000109483
0.000110487
0.000111581
0.000112813
0.000114225
0.000115876
0.000117822
0.000120032
0.000122153
0.000122888
4.02445e-05
5.43414e-05
7.27185e-05
8.70165e-05
9.59781e-05
0.000101077
0.00010396
0.000105717
0.00010695
0.000107967
0.000108928
0.000109921
0.000111005
0.000112223
0.00011362
0.000115253
0.000117178
0.000119364
0.00012149
0.000122873
4.02494e-05
4.02488e-05
4.02482e-05
4.02477e-05
4.02472e-05
4.02468e-05
4.02464e-05
4.02461e-05
4.02458e-05
4.02455e-05
4.02453e-05
4.02451e-05
4.02449e-05
4.02448e-05
4.02447e-05
4.02446e-05
4.02445e-05
4.02445e-05
4.02445e-05
4.02445e-05
)
;
    }
    frontAndBack
    {
        type            empty;
    }
}


// ************************************************************************* //
