/*--------------------------------*- C++ -*----------------------------------*\
| =========                 |                                                 |
| \\      /  F ield         | OpenFOAM: The Open Source CFD Toolbox           |
|  \\    /   O peration     | Version:  2506                                  |
|   \\  /    A nd           | Website:  www.openfoam.com                      |
|    \\/     M anipulation  |                                                 |
\*---------------------------------------------------------------------------*/
FoamFile
{
    version     2.0;
    format      ascii;
    arch        "LSB;label=32;scalar=64";
    class       surfaceVectorField;
    location    "3.5";
    object      surfaceU;
}
// * * * * * * * * * * * * * * * * * * * * * * * * * * * * * * * * * * * * * //

dimensions      [0 1 -1 0 0 0 0];

internalField   nonuniform List<vector> 
760
(
(-1 8.70383e-08 0)
(-1 -2.57528e-09 0)
(-1 -1.95724e-08 0)
(-1 5.59381e-10 0)
(-1 4.68842e-09 0)
(-1 -1.21535e-10 0)
(-1 -1.06389e-09 0)
(-1 2.37739e-11 0)
(-1 2.4618e-10 0)
(-1 -5.52015e-12 0)
(-1 -5.79091e-11 0)
(-1 2.79111e-15 0)
(-1 1.27648e-11 0)
(-1 -5.99719e-13 0)
(-1 -3.15598e-12 0)
(-1 -3.42365e-13 0)
(-1 6.09619e-13 0)
(-1 -1.76774e-13 0)
(-1 -1.93343e-13 0)
(-1 -9.37368e-14 0)
(-1 1.60144e-14 0)
(-1 -3.65297e-14 0)
(-1 -2.00137e-14 0)
(-1 -1.80047e-14 0)
(-1 -1.29458e-14 0)
(-1 -1.62829e-14 0)
(-1 -2.35699e-14 0)
(-1 -3.20909e-14 0)
(-1 -3.13536e-14 0)
(-1 -5.34626e-14 0)
(-1 -3.23855e-14 0)
(-1 -6.85619e-14 0)
(-1 -2.59727e-14 0)
(-1 -6.17713e-14 0)
(-1 -2.01903e-14 0)
(-1 -3.89841e-14 0)
(-1 -2.22259e-14 0)
(-1 -3.90125e-14 0)
(-1 -5.11753e-14 0)
(-1 -8.90542e-08 0)
(-1 5.18426e-09 0)
(-1 2.00103e-08 0)
(-1 -1.20604e-09 0)
(-1 -4.78618e-09 0)
(-1 2.93302e-10 0)
(-1 1.08214e-09 0)
(-1 -7.08494e-11 0)
(-1 -2.51697e-10 0)
(-1 1.4552e-11 0)
(-1 5.73121e-11 0)
(-1 -5.81383e-12 0)
(-1 -1.37069e-11 0)
(-1 -1.42673e-13 0)
(-1 2.63684e-12 0)
(-1 -8.83761e-13 0)
(-1 -8.8013e-13 0)
(-1 -2.60155e-13 0)
(-1 6.30769e-14 0)
(-1 -1.51679e-13 0)
(-1 -7.05488e-14 0)
(-1 -4.13869e-14 0)
(-1 -1.42738e-14 0)
(-1 -1.4499e-14 0)
(-1 -3.54279e-14 0)
(-1 -1.77847e-14 0)
(-1 -6.19836e-14 0)
(-1 -5.35048e-14 0)
(-1 -9.0671e-14 0)
(-1 -9.83491e-14 0)
(-1 -9.79478e-14 0)
(-1 -1.30689e-13 0)
(-1 -7.47827e-14 0)
(-1 -1.19913e-13 0)
(-1 -5.78063e-14 0)
(-1 -7.36744e-14 0)
(-1 -6.79619e-14 0)
(-1 -7.71387e-14 0)
(-1 -1.00228e-13 0)
(-1 9.30324e-08 0)
(-1 -7.30274e-09 0)
(-1 -2.0923e-08 0)
(-1 1.74813e-09 0)
(-1 5.00863e-09 0)
(-1 -4.37366e-10 0)
(-1 -1.13844e-09 0)
(-1 8.89467e-11 0)
(-1 2.60436e-10 0)
(-1 -2.88325e-11 0)
(-1 -6.32686e-11 0)
(-1 2.63628e-12 0)
(-1 1.26805e-11 0)
(-1 -2.76192e-12 0)
(-1 -3.78076e-12 0)
(-1 -4.66938e-13 0)
(-1 4.68297e-13 0)
(-1 -4.13672e-13 0)
(-1 -2.56143e-13 0)
(-1 -9.87574e-14 0)
(-1 1.4663e-14 0)
(-1 -1.19886e-14 0)
(-1 -1.80098e-14 0)
(-1 2.05852e-14 0)
(-1 -3.58616e-14 0)
(-1 7.13995e-16 0)
(-1 -8.98703e-14 0)
(-1 -5.91811e-14 0)
(-1 -1.38367e-13 0)
(-1 -1.30212e-13 0)
(-1 -1.52655e-13 0)
(-1 -1.81025e-13 0)
(-1 -1.18805e-13 0)
(-1 -1.68894e-13 0)
(-1 -9.30068e-14 0)
(-1 -1.035e-13 0)
(-1 -1.09405e-13 0)
(-1 -1.10259e-13 0)
(-1 -1.4553e-13 0)
(-1 -9.8587e-08 0)
(-1 7.73802e-09 0)
(-1 2.22338e-08 0)
(-1 -2.19769e-09 0)
(-1 -5.35705e-09 0)
(-1 4.90232e-10 0)
(-1 1.19855e-09 0)
(-1 -1.41653e-10 0)
(-1 -2.86632e-10 0)
(-1 2.74151e-11 0)
(-1 6.3143e-11 0)
(-1 -1.02953e-11 0)
(-1 -1.59093e-11 0)
(-1 5.78465e-13 0)
(-1 2.90015e-12 0)
(-1 -1.10126e-12 0)
(-1 -9.80726e-13 0)
(-1 -1.19859e-13 0)
(-1 1.45397e-13 0)
(-1 -3.40713e-14 0)
(-1 -6.06633e-15 0)
(-1 8.84205e-14 0)
(-1 3.9309e-14 0)
(-1 8.66908e-14 0)
(-1 -2.26055e-14 0)
(-1 4.47377e-14 0)
(-1 -9.95231e-14 0)
(-1 -4.59567e-14 0)
(-1 -1.7287e-13 0)
(-1 -1.45628e-13 0)
(-1 -1.97264e-13 0)
(-1 -2.16883e-13 0)
(-1 -1.53589e-13 0)
(-1 -2.05988e-13 0)
(-1 -1.20752e-13 0)
(-1 -1.25253e-13 0)
(-1 -1.46385e-13 0)
(-1 -1.37445e-13 0)
(-1 -1.85733e-13 0)
(-1 1.04127e-07 0)
(-1 -6.31959e-09 0)
(-1 -2.39413e-08 0)
(-1 1.86407e-09 0)
(-1 5.70563e-09 0)
(-1 -4.47415e-10 0)
(-1 -1.31279e-09 0)
(-1 1.25917e-10 0)
(-1 3.03752e-10 0)
(-1 -3.49219e-11 0)
(-1 -7.28598e-11 0)
(-1 7.035e-12 0)
(-1 1.53865e-11 0)
(-1 -3.02274e-12 0)
(-1 -4.12127e-12 0)
(-1 2.54843e-13 0)
(-1 8.26795e-13 0)
(-1 -1.15235e-13 0)
(-1 -9.10475e-14 0)
(-1 2.16067e-13 0)
(-1 1.81178e-13 0)
(-1 2.16309e-13 0)
(-1 9.21195e-14 0)
(-1 1.92788e-13 0)
(-1 2.13865e-14 0)
(-1 1.11702e-13 0)
(-1 -9.20612e-14 0)
(-1 -1.26813e-14 0)
(-1 -1.8964e-13 0)
(-1 -1.433e-13 0)
(-1 -2.25606e-13 0)
(-1 -2.36269e-13 0)
(-1 -1.77651e-13 0)
(-1 -2.29475e-13 0)
(-1 -1.41946e-13 0)
(-1 -1.38534e-13 0)
(-1 -1.76793e-13 0)
(-1 -1.57463e-13 0)
(-1 -2.19571e-13 0)
(-1 -1.08583e-07 0)
(-1 5.90838e-09 0)
(-1 2.53579e-08 0)
(-1 -1.64729e-09 0)
(-1 -6.02713e-09 0)
(-1 3.95534e-10 0)
(-1 1.40379e-09 0)
(-1 -1.11017e-10 0)
(-1 -3.31638e-10 0)
(-1 2.77106e-11 0)
(-1 7.6872e-11 0)
(-1 -7.90674e-12 0)
(-1 -1.81544e-11 0)
(-1 2.02199e-12 0)
(-1 4.26088e-12 0)
(-1 -3.50617e-13 0)
(-1 -7.25963e-13 0)
(-1 5.13515e-13 0)
(-1 5.23424e-13 0)
(-1 3.88045e-13 0)
(-1 2.2792e-13 0)
(-1 4.14457e-13 0)
(-1 2.12371e-13 0)
(-1 3.16228e-13 0)
(-1 7.76341e-14 0)
(-1 2.0023e-13 0)
(-1 -6.39197e-14 0)
(-1 3.74601e-14 0)
(-1 -1.89928e-13 0)
(-1 -1.2392e-13 0)
(-1 -2.40138e-13 0)
(-1 -2.3932e-13 0)
(-1 -1.90357e-13 0)
(-1 -2.39292e-13 0)
(-1 -1.54051e-13 0)
(-1 -1.42579e-13 0)
(-1 -2.00242e-13 0)
(-1 -1.70069e-13 0)
(-1 -2.46325e-13 0)
(-1 1.12844e-07 0)
(-1 -5.71936e-09 0)
(-1 -2.66097e-08 0)
(-1 1.53125e-09 0)
(-1 6.31165e-09 0)
(-1 -3.64371e-10 0)
(-1 -1.48709e-09 0)
(-1 9.81511e-11 0)
(-1 3.51442e-10 0)
(-1 -2.41373e-11 0)
(-1 -8.27568e-11 0)
(-1 6.81002e-12 0)
(-1 1.98258e-11 0)
(-1 -1.13188e-12 0)
(-1 -4.09798e-12 0)
(-1 1.11296e-12 0)
(-1 1.62752e-12 0)
(-1 6.01699e-13 0)
(-1 2.79078e-13 0)
(-1 7.2533e-13 0)
(-1 5.02765e-13 0)
(-1 5.90084e-13 0)
(-1 3.04087e-13 0)
(-1 4.62532e-13 0)
(-1 1.60056e-13 0)
(-1 2.97793e-13 0)
(-1 -2.25399e-14 0)
(-1 1.00773e-13 0)
(-1 -1.73312e-13 0)
(-1 -9.05368e-14 0)
(-1 -2.38475e-13 0)
(-1 -2.26973e-13 0)
(-1 -1.91514e-13 0)
(-1 -2.35791e-13 0)
(-1 -1.58597e-13 0)
(-1 -1.3841e-13 0)
(-1 -2.16152e-13 0)
(-1 -1.75171e-13 0)
(-1 -2.65549e-13 0)
(-1 -1.17032e-07 0)
(-1 5.55205e-09 0)
(-1 2.77765e-08 0)
(-1 -1.43101e-09 0)
(-1 -6.57787e-09 0)
(-1 3.45198e-10 0)
(-1 1.56111e-09 0)
(-1 -8.7357e-11 0)
(-1 -3.6877e-10 0)
(-1 2.36246e-11 0)
(-1 8.84349e-11 0)
(-1 -4.43366e-12 0)
(-1 -1.98447e-11 0)
(-1 2.63138e-12 0)
(-1 5.81264e-12 0)
(-1 7.44476e-13 0)
(-1 -3.00494e-13 0)
(-1 1.15384e-12 0)
(-1 1.03634e-12 0)
(-1 9.22861e-13 0)
(-1 5.49852e-13 0)
(-1 7.95919e-13 0)
(-1 4.56238e-13 0)
(-1 5.99132e-13 0)
(-1 2.3851e-13 0)
(-1 4.00682e-13 0)
(-1 3.27764e-14 0)
(-1 1.69923e-13 0)
(-1 -1.44198e-13 0)
(-1 -4.68035e-14 0)
(-1 -2.24289e-13 0)
(-1 -2.02334e-13 0)
(-1 -1.82687e-13 0)
(-1 -2.21084e-13 0)
(-1 -1.54985e-13 0)
(-1 -1.26484e-13 0)
(-1 -2.24568e-13 0)
(-1 -1.73365e-13 0)
(-1 -2.77183e-13 0)
(-1 1.21153e-07 0)
(-1 -5.43583e-09 0)
(-1 -2.88624e-08 0)
(-1 1.39249e-09 0)
(-1 6.83571e-09 0)
(-1 -3.26861e-10 0)
(-1 -1.62484e-09 0)
(-1 8.66123e-11 0)
(-1 3.87961e-10 0)
(-1 -1.85705e-11 0)
(-1 -9.02372e-11 0)
(-1 6.91475e-12 0)
(-1 2.32206e-11 0)
(-1 3.0706e-13 0)
(-1 -3.91432e-12 0)
(-1 1.81663e-12 0)
(-1 2.37719e-12 0)
(-1 1.26526e-12 0)
(-1 6.82443e-13 0)
(-1 1.19575e-12 0)
(-1 8.45199e-13 0)
(-1 9.55105e-13 0)
(-1 5.43576e-13 0)
(-1 7.31492e-13 0)
(-1 3.32095e-13 0)
(-1 4.96056e-13 0)
(-1 9.0343e-14 0)
(-1 2.40111e-13 0)
(-1 -1.0494e-13 0)
(-1 2.45656e-15 0)
(-1 -1.99128e-13 0)
(-1 -1.6849e-13 0)
(-1 -1.64881e-13 0)
(-1 -1.971e-13 0)
(-1 -1.44864e-13 0)
(-1 -1.0874e-13 0)
(-1 -2.25979e-13 0)
(-1 -1.65226e-13 0)
(-1 -2.81631e-13 0)
(-1 -1.25196e-07 0)
(-1 5.16225e-09 0)
(-1 2.9928e-08 0)
(-1 -1.29592e-09 0)
(-1 -7.07596e-09 0)
(-1 3.12239e-10 0)
(-1 1.69288e-09 0)
(-1 -7.50525e-11 0)
(-1 -3.99616e-10 0)
(-1 2.15406e-11 0)
(-1 9.7459e-11 0)
(-1 -2.49316e-12 0)
(-1 -2.10969e-11 0)
(-1 3.17385e-12 0)
(-1 6.99622e-12 0)
(-1 1.49952e-12 0)
(-1 8.38153e-14 0)
(-1 1.65978e-12 0)
(-1 1.46841e-12 0)
(-1 1.34004e-12 0)
(-1 8.41397e-13 0)
(-1 1.10711e-12 0)
(-1 6.83972e-13 0)
(-1 8.37482e-13 0)
(-1 4.04072e-13 0)
(-1 5.8041e-13 0)
(-1 1.52224e-13 0)
(-1 3.0476e-13 0)
(-1 -6.10934e-14 0)
(-1 5.30602e-14 0)
(-1 -1.66461e-13 0)
(-1 -1.29243e-13 0)
(-1 -1.4096e-13 0)
(-1 -1.67013e-13 0)
(-1 -1.29102e-13 0)
(-1 -8.64073e-14 0)
(-1 -2.20878e-13 0)
(-1 -1.5194e-13 0)
(-1 -2.79471e-13 0)
(-1 1.29063e-07 0)
(-1 -4.93624e-09 0)
(-1 -3.09117e-08 0)
(-1 1.24295e-09 0)
(-1 7.31314e-09 0)
(-1 -2.90355e-10 0)
(-1 -1.74639e-09 0)
(-1 7.67581e-11 0)
(-1 4.18664e-10 0)
(-1 -1.50297e-11 0)
(-1 -9.67783e-11 0)
(-1 6.90014e-12 0)
(-1 2.57702e-11 0)
(-1 1.15619e-12 0)
(-1 -3.83693e-12 0)
(-1 2.27993e-12 0)
(-1 2.91601e-12 0)
(-1 1.69408e-12 0)
(-1 9.78744e-13 0)
(-1 1.51163e-12 0)
(-1 1.10319e-12 0)
(-1 1.20316e-12 0)
(-1 7.33919e-13 0)
(-1 9.21507e-13 0)
(-1 4.81098e-13 0)
(-1 6.4519e-13 0)
(-1 2.05595e-13 0)
(-1 3.59626e-13 0)
(-1 -1.5089e-14 0)
(-1 1.00469e-13 0)
(-1 -1.29795e-13 0)
(-1 -8.79349e-14 0)
(-1 -1.12461e-13 0)
(-1 -1.33219e-13 0)
(-1 -1.09245e-13 0)
(-1 -6.17929e-14 0)
(-1 -2.10532e-13 0)
(-1 -1.3435e-13 0)
(-1 -2.713e-13 0)
(-1 -1.32756e-07 0)
(-1 4.51476e-09 0)
(-1 3.18643e-08 0)
(-1 -1.11629e-09 0)
(-1 -7.52674e-09 0)
(-1 2.69507e-10 0)
(-1 1.80812e-09 0)
(-1 -6.25571e-11 0)
(-1 -4.26793e-10 0)
(-1 1.90497e-11 0)
(-1 1.04835e-10 0)
(-1 -1.15456e-12 0)
(-1 -2.23341e-11 0)
(-1 3.40854e-12 0)
(-1 7.81093e-12 0)
(-1 1.92646e-12 0)
(-1 2.89702e-13 0)
(-1 1.93266e-12 0)
(-1 1.73604e-12 0)
(-1 1.56438e-12 0)
(-1 1.02147e-12 0)
(-1 1.27424e-12 0)
(-1 8.32778e-13 0)
(-1 9.69366e-13 0)
(-1 5.23719e-13 0)
(-1 6.88171e-13 0)
(-1 2.54499e-13 0)
(-1 3.99825e-13 0)
(-1 2.76226e-14 0)
(-1 1.40932e-13 0)
(-1 -9.13592e-14 0)
(-1 -4.82713e-14 0)
(-1 -8.25507e-14 0)
(-1 -9.86894e-14 0)
(-1 -8.6897e-14 0)
(-1 -3.61386e-14 0)
(-1 -1.95118e-13 0)
(-1 -1.14028e-13 0)
(-1 -2.57608e-13 0)
(-1 1.36155e-07 0)
(-1 -4.17396e-09 0)
(-1 -3.27111e-08 0)
(-1 1.04077e-09 0)
(-1 7.73369e-09 0)
(-1 -2.42074e-10 0)
(-1 -1.85163e-09 0)
(-1 6.4519e-11 0)
(-1 4.44688e-10 0)
(-1 -1.14962e-11 0)
(-1 -1.02581e-10 0)
(-1 6.48607e-12 0)
(-1 2.76691e-11 0)
(-1 1.66905e-12 0)
(-1 -3.95181e-12 0)
(-1 2.45815e-12 0)
(-1 3.20733e-12 0)
(-1 1.87165e-12 0)
(-1 1.10258e-12 0)
(-1 1.62224e-12 0)
(-1 1.22213e-12 0)
(-1 1.28594e-12 0)
(-1 8.24759e-13 0)
(-1 9.85801e-13 0)
(-1 5.64277e-13 0)
(-1 7.03806e-13 0)
(-1 2.86258e-13 0)
(-1 4.22451e-13 0)
(-1 6.50384e-14 0)
(-1 1.7102e-13 0)
(-1 -5.56015e-14 0)
(-1 -1.28908e-14 0)
(-1 -5.22772e-14 0)
(-1 -6.5595e-14 0)
(-1 -6.32694e-14 0)
(-1 -1.2189e-14 0)
(-1 -1.76518e-13 0)
(-1 -9.23302e-14 0)
(-1 -2.3879e-13 0)
(-1 -1.39288e-07 0)
(-1 3.63437e-09 0)
(-1 3.35097e-08 0)
(-1 -8.85682e-10 0)
(-1 -7.91124e-09 0)
(-1 2.14646e-10 0)
(-1 1.90465e-09 0)
(-1 -4.78385e-11 0)
(-1 -4.49699e-10 0)
(-1 1.57802e-11 0)
(-1 1.10736e-10 0)
(-1 5.16442e-15 0)
(-1 -2.35419e-11 0)
(-1 3.33926e-12 0)
(-1 8.28161e-12 0)
(-1 2.0798e-12 0)
(-1 2.86554e-13 0)
(-1 1.95463e-12 0)
(-1 1.8056e-12 0)
(-1 1.57164e-12 0)
(-1 1.0496e-12 0)
(-1 1.26272e-12 0)
(-1 8.64848e-13 0)
(-1 9.60919e-13 0)
(-1 5.61981e-13 0)
(-1 6.9101e-13 0)
(-1 3.07213e-13 0)
(-1 4.24435e-13 0)
(-1 9.30903e-14 0)
(-1 1.88557e-13 0)
(-1 -2.28843e-14 0)
(-1 1.56119e-14 0)
(-1 -2.55067e-14 0)
(-1 -3.68678e-14 0)
(-1 -4.12498e-14 0)
(-1 8.16695e-15 0)
(-1 -1.54602e-13 0)
(-1 -7.11423e-14 0)
(-1 -2.1521e-13 0)
(-1 1.42036e-07 0)
(-1 -3.19855e-09 0)
(-1 -3.41808e-08 0)
(-1 7.87278e-10 0)
(-1 8.07805e-09 0)
(-1 -1.813e-10 0)
(-1 -1.93671e-09 0)
(-1 4.9278e-11 0)
(-1 4.65484e-10 0)
(-1 -7.31607e-12 0)
(-1 -1.07391e-10 0)
(-1 5.67468e-12 0)
(-1 2.8961e-11 0)
(-1 1.97437e-12 0)
(-1 -4.24718e-12 0)
(-1 2.35296e-12 0)
(-1 3.23972e-12 0)
(-1 1.7955e-12 0)
(-1 1.02876e-12 0)
(-1 1.50427e-12 0)
(-1 1.17404e-12 0)
(-1 1.17921e-12 0)
(-1 7.8708e-13 0)
(-1 8.98387e-13 0)
(-1 5.53464e-13 0)
(-1 6.46829e-13 0)
(-1 3.05779e-13 0)
(-1 4.043e-13 0)
(-1 1.11079e-13 0)
(-1 1.91277e-13 0)
(-1 1.62839e-15 0)
(-1 3.49228e-14 0)
(-1 -3.19415e-15 0)
(-1 -1.44467e-14 0)
(-1 -2.17255e-14 0)
(-1 2.2351e-14 0)
(-1 -1.31751e-13 0)
(-1 -5.22563e-14 0)
(-1 -1.87212e-13 0)
(-1 -1.44448e-07 0)
(-1 2.58827e-09 0)
(-1 3.47868e-08 0)
(-1 -6.26464e-10 0)
(-1 -8.21007e-09 0)
(-1 1.54012e-10 0)
(-1 1.97867e-09 0)
(-1 -3.1923e-11 0)
(-1 -4.67125e-10 0)
(-1 1.24783e-11 0)
(-1 1.1504e-10 0)
(-1 9.89705e-13 0)
(-1 -2.46337e-11 0)
(-1 3.01877e-12 0)
(-1 8.39564e-12 0)
(-1 1.92719e-12 0)
(-1 6.00518e-14 0)
(-1 1.69295e-12 0)
(-1 1.65471e-12 0)
(-1 1.32622e-12 0)
(-1 9.03558e-13 0)
(-1 1.04311e-12 0)
(-1 7.58135e-13 0)
(-1 7.86197e-13 0)
(-1 4.97665e-13 0)
(-1 5.66747e-13 0)
(-1 2.89797e-13 0)
(-1 3.57589e-13 0)
(-1 1.15121e-13 0)
(-1 1.75839e-13 0)
(-1 1.88477e-14 0)
(-1 4.28241e-14 0)
(-1 1.10984e-14 0)
(-1 7.80956e-16 0)
(-1 -8.17982e-15 0)
(-1 3.08325e-14 0)
(-1 -1.07717e-13 0)
(-1 -3.56249e-14 0)
(-1 -1.55867e-13 0)
(-1 1.46409e-07 0)
(-1 -2.09411e-09 0)
(-1 -3.52592e-08 0)
(-1 5.08945e-10 0)
(-1 8.33216e-09 0)
(-1 -1.12786e-10 0)
(-1 -1.99812e-09 0)
(-1 3.43551e-11 0)
(-1 4.80593e-10 0)
(-1 -3.02996e-12 0)
(-1 -1.11032e-10 0)
(-1 4.7142e-12 0)
(-1 2.95796e-11 0)
(-1 1.87089e-12 0)
(-1 -4.7755e-12 0)
(-1 1.8907e-12 0)
(-1 2.95912e-12 0)
(-1 1.37514e-12 0)
(-1 7.14614e-13 0)
(-1 1.1104e-12 0)
(-1 9.25746e-13 0)
(-1 8.49495e-13 0)
(-1 5.94809e-13 0)
(-1 6.40805e-13 0)
(-1 4.2667e-13 0)
(-1 4.61416e-13 0)
(-1 2.4363e-13 0)
(-1 2.94821e-13 0)
(-1 1.03543e-13 0)
(-1 1.50999e-13 0)
(-1 2.47573e-14 0)
(-1 4.66755e-14 0)
(-1 2.05151e-14 0)
(-1 1.34734e-14 0)
(-1 3.38742e-15 0)
(-1 3.58488e-14 0)
(-1 -8.37745e-14 0)
(-1 -2.01402e-14 0)
(-1 -1.22449e-13 0)
(-1 -1.47995e-07 0)
(-1 1.42923e-09 0)
(-1 3.56554e-08 0)
(-1 -3.30256e-10 0)
(-1 -8.41059e-09 0)
(-1 8.42398e-11 0)
(-1 2.02944e-09 0)
(-1 -1.0146e-11 0)
(-1 -4.78909e-10 0)
(-1 7.09355e-12 0)
(-1 1.17617e-10 0)
(-1 2.13564e-12 0)
(-1 -2.5818e-11 0)
(-1 1.86356e-12 0)
(-1 8.04134e-12 0)
(-1 1.37487e-12 0)
(-1 -4.73582e-13 0)
(-1 1.02427e-12 0)
(-1 1.24528e-12 0)
(-1 8.05841e-13 0)
(-1 5.64554e-13 0)
(-1 6.08589e-13 0)
(-1 5.07412e-13 0)
(-1 4.56957e-13 0)
(-1 3.29567e-13 0)
(-1 3.28536e-13 0)
(-1 2.0219e-13 0)
(-1 2.116e-13 0)
(-1 9.41318e-14 0)
(-1 1.11611e-13 0)
(-1 3.53916e-14 0)
(-1 3.92671e-14 0)
(-1 2.88071e-14 0)
(-1 1.63924e-14 0)
(-1 1.23212e-14 0)
(-1 3.57199e-14 0)
(-1 -5.88146e-14 0)
(-1 -2.70148e-15 0)
(-1 -8.65127e-14 0)
(-1 1.49094e-07 0)
(-1 -1.13868e-09 0)
(-1 -3.59014e-08 0)
(-1 5.20564e-10 0)
(-1 8.48469e-09 0)
(-1 -1.24326e-10 0)
(-1 -2.03249e-09 0)
(-1 5.00099e-11 0)
(-1 4.88138e-10 0)
(-1 -1.1008e-11 0)
(-1 -1.13618e-10 0)
(-1 5.50538e-12 0)
(-1 2.90565e-11 0)
(-1 -1.8775e-13 0)
(-1 -5.6422e-12 0)
(-1 1.08058e-12 0)
(-1 2.30369e-12 0)
(-1 4.38757e-13 0)
(-1 1.69152e-13 0)
(-1 4.3917e-13 0)
(-1 5.00992e-13 0)
(-1 2.97186e-13 0)
(-1 2.78081e-13 0)
(-1 2.26822e-13 0)
(-1 2.10569e-13 0)
(-1 1.58396e-13 0)
(-1 1.21021e-13 0)
(-1 1.00232e-13 0)
(-1 5.67463e-14 0)
(-1 5.0268e-14 0)
(-1 2.0268e-14 0)
(-1 1.43231e-14 0)
(-1 2.33052e-14 0)
(-1 5.74007e-15 0)
(-1 2.06972e-14 0)
(-1 2.45488e-14 0)
(-1 -3.03995e-14 0)
(-1 7.8993e-15 0)
(-1 -4.56183e-14 0)
(-1 -1.49712e-07 0)
(-1 3.62976e-08 0)
(-1 -8.559e-09 0)
(-1 2.0715e-09 0)
(-1 -4.93641e-10 0)
(-1 1.18935e-10 0)
(-1 -2.81636e-11 0)
(-1 7.16154e-12 0)
(-1 -1.42576e-12 0)
(-1 5.67204e-13 0)
(-1 2.30158e-14 0)
(-1 1.07137e-13 0)
(-1 4.80579e-14 0)
(-1 2.94781e-14 0)
(-1 7.84483e-15 0)
(-1 -2.04769e-16 0)
(-1 6.98359e-15 0)
(-1 1.17509e-14 0)
(-1 -7.31943e-15 0)
)
;

boundaryField
{
    movingWall
    {
        type            calculated;
        value           uniform (-1 -0 -0);
    }
    fixedWalls
    {
        type            calculated;
        value           uniform (-1 -0 -0);
    }
    frontAndBack
    {
        type            empty;
    }
}


// ************************************************************************* //
