/*--------------------------------*- C++ -*----------------------------------*\
| =========                 |                                                 |
| \\      /  F ield         | OpenFOAM: The Open Source CFD Toolbox           |
|  \\    /   O peration     | Version:  2506                                  |
|   \\  /    A nd           | Website:  www.openfoam.com                      |
|    \\/     M anipulation  |                                                 |
\*---------------------------------------------------------------------------*/
FoamFile
{
    version     2.0;
    format      ascii;
    arch        "LSB;label=32;scalar=64";
    class       surfaceScalarField;
    location    "3.5";
    object      surfaceP;
}
// * * * * * * * * * * * * * * * * * * * * * * * * * * * * * * * * * * * * * //

dimensions      [0 2 -2 0 0 0 0];

internalField   nonuniform List<scalar> 
760
(
2.8495e-10
0
2.88785e-10
2.8495e-10
5.16564e-12
3.83478e-12
1.33085e-12
1.33085e-12
0
0
0
0
0
0
0
0
0
0
0
0
0
0
0
0
0
0
0
0
0
0
3.95311e-14
0
1.71871e-13
1.10214e-13
3.19627e-13
2.89833e-13
3.98223e-13
3.98397e-13
4.4512e-13
0
0
0
1.71218e-09
0
4.82818e-11
0
9.22865e-11
0
0
0
0
0
0
0
0
0
0
0
0
0
0
0
0
0
0
0
0
0
0
7.06831e-14
1.30004e-14
2.28177e-13
2.02214e-13
3.68603e-13
3.67515e-13
4.45294e-13
4.68556e-13
5.12101e-13
1.71218e-09
0
1.76046e-09
1.71218e-09
1.40568e-10
4.82818e-11
9.22865e-11
9.22865e-11
0
4.87258e-12
0
0
0
0
0
0
0
0
0
0
0
0
0
0
0
0
0
0
1.30004e-14
0
1.44532e-13
1.31502e-13
3.41552e-13
3.48826e-13
4.67467e-13
4.92408e-13
5.35362e-13
5.81043e-13
6.2007e-13
0
0
0
3.12178e-09
0
1.28867e-10
4.87258e-12
2.0244e-10
4.87258e-12
4.87258e-12
0
4.22765e-12
0
0
0
0
0
0
0
0
0
0
0
0
0
0
0
1.05487e-14
1.18502e-13
1.43416e-13
3.35796e-13
3.66807e-13
4.99681e-13
5.42455e-13
6.05984e-13
6.58335e-13
6.6575e-13
7.30938e-13
7.63906e-13
3.12178e-09
3.82997e-10
3.25064e-09
3.12178e-09
3.31306e-10
1.28867e-10
2.0244e-10
2.0244e-10
4.22765e-12
1.72429e-11
4.22765e-12
4.22765e-12
0
2.38064e-12
0
0
0
0
0
0
0
0
0
7.85475e-15
1.05487e-14
1.39557e-13
1.53964e-13
2.52244e-13
3.9172e-13
4.71556e-13
5.73466e-13
6.46741e-13
7.01108e-13
7.7398e-13
7.83289e-13
8.57261e-13
8.29094e-13
9.11509e-13
9.37749e-13
3.82997e-10
3.82997e-10
0
3.70275e-09
0
1.21211e-10
1.72429e-11
2.53848e-10
1.72429e-11
1.72429e-11
2.38064e-12
1.05348e-11
2.38064e-12
2.38064e-12
0
7.8592e-13
0
3.344e-14
0
3.90526e-13
7.85475e-15
3.52317e-13
1.47412e-13
4.2293e-13
3.81253e-13
5.88595e-13
5.69836e-13
7.31236e-13
7.26577e-13
8.53985e-13
8.47256e-13
9.57735e-13
9.30133e-13
1.03281e-12
9.85481e-13
1.08097e-12
1.02016e-12
1.11537e-12
1.13427e-12
3.70275e-09
4.68394e-10
3.82396e-09
3.70275e-09
3.75059e-10
1.21211e-10
2.53848e-10
2.53848e-10
1.05348e-11
2.39723e-11
1.05348e-11
1.05348e-11
7.8592e-13
5.43195e-12
8.1936e-13
1.60274e-12
4.23966e-13
1.40881e-12
7.42844e-13
1.29357e-12
7.67393e-13
1.23699e-12
8.64113e-13
1.21495e-12
9.38578e-13
1.21483e-12
1.01538e-12
1.22916e-12
1.08514e-12
1.25527e-12
1.14329e-12
1.28658e-12
1.18365e-12
1.30824e-12
1.21086e-12
1.32032e-12
1.22947e-12
1.33477e-12
1.34646e-12
4.68394e-10
4.68394e-10
0
3.67912e-09
0
1.18291e-10
2.39723e-11
2.58096e-10
2.39723e-11
2.39723e-11
5.43195e-12
1.37396e-11
6.24876e-12
5.43195e-12
2.19219e-12
3.5619e-12
2.27841e-12
2.95042e-12
1.78772e-12
2.52382e-12
1.68455e-12
2.21282e-12
1.56567e-12
1.99215e-12
1.50541e-12
1.83497e-12
1.46905e-12
1.72739e-12
1.45671e-12
1.66012e-12
1.45154e-12
1.62068e-12
1.44491e-12
1.59004e-12
1.44423e-12
1.56694e-12
1.45176e-12
1.56215e-12
1.56689e-12
3.67912e-09
4.40721e-10
3.79741e-09
3.67912e-09
3.76387e-10
1.18291e-10
2.58096e-10
2.58096e-10
1.37396e-11
2.61794e-11
1.37396e-11
1.37396e-11
2.74508e-12
7.41655e-12
4.32013e-12
5.34239e-12
3.19583e-12
4.35829e-12
2.94893e-12
3.67008e-12
2.52042e-12
3.13232e-12
2.26144e-12
2.73258e-12
2.05694e-12
2.43152e-12
1.91847e-12
2.21072e-12
1.8241e-12
2.05595e-12
1.75919e-12
1.9499e-12
1.71207e-12
1.86958e-12
1.68486e-12
1.81326e-12
1.67729e-12
1.79058e-12
1.78911e-12
4.40721e-10
4.40721e-10
0
3.35697e-09
0
1.13201e-10
2.61794e-11
2.39156e-10
2.61794e-11
2.61794e-11
7.41655e-12
1.51801e-11
1.00139e-11
8.65198e-12
5.38054e-12
6.888e-12
4.83254e-12
5.67395e-12
3.85347e-12
4.71287e-12
3.34448e-12
3.98416e-12
2.90267e-12
3.42208e-12
2.58531e-12
2.99224e-12
2.34821e-12
2.66823e-12
2.18175e-12
2.43352e-12
2.06029e-12
2.26612e-12
1.97078e-12
2.13997e-12
1.91898e-12
2.05318e-12
1.9024e-12
2.01454e-12
2.00785e-12
3.35697e-09
3.7753e-10
3.47017e-09
3.35697e-09
3.52357e-10
1.13201e-10
2.39156e-10
2.39156e-10
1.51801e-11
2.62289e-11
1.64156e-11
1.51801e-11
5.52613e-12
9.93308e-12
7.18141e-12
8.36693e-12
5.55428e-12
6.80246e-12
4.84356e-12
5.66883e-12
4.06176e-12
4.75697e-12
3.51166e-12
4.05525e-12
3.07516e-12
3.50934e-12
2.75354e-12
3.0933e-12
2.51789e-12
2.78653e-12
2.3458e-12
2.56375e-12
2.22237e-12
2.39649e-12
2.14874e-12
2.28248e-12
2.11998e-12
2.22973e-12
2.21856e-12
3.7753e-10
3.7753e-10
0
2.8457e-09
0
1.02086e-10
2.62289e-11
2.06123e-10
2.62289e-11
2.62289e-11
8.69765e-12
1.55354e-11
1.27739e-11
1.20493e-11
7.98798e-12
9.56724e-12
6.91701e-12
7.88228e-12
5.58224e-12
6.51101e-12
4.75046e-12
5.45697e-12
4.05293e-12
4.62677e-12
3.52748e-12
3.98016e-12
3.12629e-12
3.48228e-12
2.83238e-12
3.11168e-12
2.61443e-12
2.83963e-12
2.4566e-12
2.63563e-12
2.36348e-12
2.49788e-12
2.3283e-12
2.43309e-12
2.41799e-12
2.8457e-09
3.014e-10
2.94779e-09
2.8457e-09
3.08209e-10
1.02086e-10
2.06123e-10
2.06123e-10
1.55354e-11
2.48885e-11
1.88871e-11
1.73588e-11
8.8427e-12
1.28024e-11
9.46153e-12
1.07667e-11
7.47628e-12
8.75658e-12
6.38574e-12
7.27549e-12
5.33328e-12
6.0753e-12
4.554e-12
5.13944e-12
3.93496e-12
4.40288e-12
3.46767e-12
3.83379e-12
3.11892e-12
3.4072e-12
2.86082e-12
3.09201e-12
2.67691e-12
2.85602e-12
2.56749e-12
2.69751e-12
2.52278e-12
2.622e-12
2.60265e-12
3.014e-10
3.014e-10
0
2.20763e-09
0
8.62141e-11
2.48885e-11
1.63843e-10
2.67119e-11
2.48885e-11
1.12741e-11
1.69394e-11
1.47264e-11
1.46905e-11
1.00617e-11
1.16561e-11
8.55579e-12
9.60628e-12
6.96505e-12
7.92338e-12
5.88146e-12
6.62236e-12
4.98832e-12
5.58919e-12
4.30172e-12
4.77766e-12
3.77332e-12
4.14679e-12
3.38029e-12
3.6723e-12
3.08721e-12
3.32003e-12
2.87661e-12
3.05594e-12
2.75202e-12
2.87878e-12
2.70188e-12
2.79368e-12
2.77026e-12
2.20763e-09
2.20755e-10
2.29384e-09
2.20763e-09
2.50057e-10
8.62141e-11
1.63843e-10
1.63843e-10
1.51161e-11
2.25561e-11
2.03559e-11
2.01549e-11
1.16202e-11
1.49821e-11
1.12006e-11
1.25647e-11
8.97387e-12
1.02288e-11
7.58068e-12
8.49343e-12
6.33009e-12
7.08421e-12
5.37853e-12
5.97834e-12
4.62273e-12
5.10234e-12
4.04577e-12
4.42032e-12
3.61203e-12
3.90507e-12
3.28876e-12
3.52087e-12
3.05811e-12
3.23278e-12
2.92044e-12
3.03946e-12
2.86206e-12
2.94516e-12
2.91785e-12
2.20755e-10
2.20755e-10
0
1.5035e-09
0
6.61823e-11
2.25561e-11
1.16511e-10
2.75949e-11
2.67717e-11
1.47811e-11
1.90875e-11
1.59266e-11
1.64955e-11
1.15928e-11
1.31062e-11
9.74831e-12
1.08161e-11
7.99696e-12
8.93137e-12
6.73246e-12
7.46738e-12
5.70215e-12
6.29795e-12
4.89993e-12
5.3738e-12
4.27963e-12
4.65003e-12
3.81391e-12
4.10187e-12
3.4649e-12
3.69152e-12
3.21413e-12
3.38307e-12
3.06418e-12
3.17537e-12
3.00095e-12
3.07335e-12
3.04357e-12
1.5035e-09
1.33756e-10
1.56969e-09
1.5035e-09
1.82694e-10
6.61823e-11
1.20727e-10
1.16511e-10
1.82643e-11
2.33475e-11
2.08018e-11
2.17118e-11
1.36751e-11
1.62465e-11
1.23296e-11
1.36463e-11
9.99919e-12
1.11555e-11
8.40179e-12
9.28673e-12
7.03287e-12
7.76172e-12
5.9696e-12
6.55444e-12
5.1239e-12
5.59198e-12
4.47227e-12
4.8372e-12
3.97948e-12
4.26325e-12
3.60969e-12
3.83204e-12
3.3443e-12
3.50646e-12
3.18454e-12
3.28592e-12
3.11597e-12
3.17714e-12
3.1459e-12
1.33756e-10
1.33756e-10
0
7.67415e-10
0
4.4383e-11
1.91319e-11
6.37404e-11
2.6795e-11
2.77339e-11
1.71565e-11
1.96626e-11
1.62177e-11
1.729e-11
1.24722e-11
1.3814e-11
1.0443e-11
1.14991e-11
8.64667e-12
9.53502e-12
7.28329e-12
7.99815e-12
6.17682e-12
6.75559e-12
5.30529e-12
5.76644e-12
4.62819e-12
4.98713e-12
4.11582e-12
4.39351e-12
3.72881e-12
3.94429e-12
3.44807e-12
3.60194e-12
3.27852e-12
3.37099e-12
3.20707e-12
3.25917e-12
3.22578e-12
7.67415e-10
6.34304e-11
8.11798e-10
7.67415e-10
1.08123e-10
6.47402e-11
7.23424e-11
6.37404e-11
2.06015e-11
2.43482e-11
1.97961e-11
2.08497e-11
1.48863e-11
1.67995e-11
1.28409e-11
1.40526e-11
1.05911e-11
1.1662e-11
8.8865e-12
9.72719e-12
7.47046e-12
8.15891e-12
6.34521e-12
6.89668e-12
5.44828e-12
5.88668e-12
4.75245e-12
5.09099e-12
4.22198e-12
4.48278e-12
3.81743e-12
4.01803e-12
3.52486e-12
3.66373e-12
3.35165e-12
3.43121e-12
3.27789e-12
3.31973e-12
3.28054e-12
6.34304e-11
2.03572e-11
2.03572e-11
1.57462e-11
2.45965e-11
1.78532e-11
1.59658e-11
1.28737e-11
1.07982e-11
8.99959e-12
7.58513e-12
6.43815e-12
5.52939e-12
4.82132e-12
4.27882e-12
3.86433e-12
3.57008e-12
3.39928e-12
3.32238e-12
)
;

boundaryField
{
    movingWall
    {
        type            calculated;
        value           nonuniform List<scalar> 
20
(
1.26861e-10
0
4.07143e-11
0
3.14923e-11
1.77006e-11
1.80057e-11
1.39258e-11
1.18216e-11
9.77466e-12
8.22452e-12
6.94574e-12
5.93057e-12
5.12822e-12
4.51442e-12
4.04323e-12
3.68543e-12
3.45472e-12
3.34385e-12
3.30092e-12
)
;
    }
    fixedWalls
    {
        type            calculated;
        value           nonuniform List<scalar> 
60
(
0
0
0
0
0
7.65994e-10
0
9.36789e-10
0
8.81442e-10
0
7.55061e-10
0
6.02801e-10
0
4.41511e-10
0
2.67511e-10
0
1.26861e-10
4.2187e-13
4.6837e-13
5.55833e-13
6.84306e-13
8.43505e-13
1.03199e-12
1.23654e-12
1.45637e-12
1.67741e-12
1.90081e-12
2.11488e-12
2.32223e-12
2.51375e-12
2.69154e-12
2.84897e-12
2.98672e-12
3.10041e-12
3.19139e-12
3.26017e-12
3.30092e-12
0
5.699e-10
7.66957e-12
2.6617e-12
0
0
0
0
0
0
0
0
0
0
0
0
7.90622e-14
2.64679e-13
3.74575e-13
4.2187e-13
)
;
    }
    frontAndBack
    {
        type            empty;
    }
}


// ************************************************************************* //
