/*--------------------------------*- C++ -*----------------------------------*\
| =========                 |                                                 |
| \\      /  F ield         | OpenFOAM: The Open Source CFD Toolbox           |
|  \\    /   O peration     | Version:  2506                                  |
|   \\  /    A nd           | Website:  www.openfoam.com                      |
|    \\/     M anipulation  |                                                 |
\*---------------------------------------------------------------------------*/
FoamFile
{
    version     2.0;
    format      ascii;
    arch        "LSB;label=32;scalar=64";
    class       surfaceScalarField;
    location    "3.5";
    object      surfaceDivU;
}
// * * * * * * * * * * * * * * * * * * * * * * * * * * * * * * * * * * * * * //

dimensions      [0 0 -1 0 0 0 0];

internalField   nonuniform List<scalar> 
760
(
-2.39025e-07
-2.28476e-07
-2.63909e-07
7.28255e-07
2.44943e-08
-1.39246e-07
-2.2338e-08
6.92834e-08
2.12927e-09
-1.3096e-08
-1.22903e-09
5.0806e-09
2.89708e-10
-1.36467e-09
-6.06282e-11
3.65821e-10
2.39335e-11
-1.14424e-10
-3.02489e-12
3.26908e-11
3.0711e-12
-6.95141e-12
1.152e-12
3.93247e-12
1.58652e-12
6.45446e-13
1.3651e-12
1.53706e-12
1.11968e-12
1.2987e-12
2.75255e-13
4.98546e-13
-3.99037e-13
-5.77278e-13
8.73958e-13
1.45383e-13
1.4791e-12
2.24912e-12
5.69206e-13
7.38804e-07
2.51425e-07
8.52918e-07
-7.01904e-07
-9.44567e-08
1.25653e-07
7.85253e-08
-6.38811e-08
-1.01447e-08
1.0855e-08
4.94496e-09
-4.39877e-09
-1.28856e-09
1.13317e-09
3.12025e-10
-2.8076e-10
-1.05666e-10
9.98556e-11
2.87642e-11
-1.9853e-11
-6.09003e-12
8.41827e-12
3.42592e-12
-7.05972e-13
5.9599e-13
1.55909e-12
1.47066e-12
9.42241e-13
6.77565e-13
1.308e-12
-3.53987e-13
5.1441e-13
-3.28578e-14
-7.59232e-13
1.52054e-12
-4.4963e-14
1.33922e-12
2.06338e-12
6.09864e-13
-1.18928e-06
-4.65996e-07
-1.42917e-06
7.11707e-07
1.56229e-07
-1.349e-07
-1.31551e-07
6.57866e-08
1.6601e-08
-1.07783e-08
-8.21057e-09
4.75185e-09
2.14096e-09
-1.09475e-09
-4.92929e-10
3.22953e-10
1.85669e-10
-9.85643e-11
-4.0199e-11
2.62227e-11
1.38023e-11
-6.50564e-12
-2.57281e-12
2.84002e-12
1.90534e-12
2.4902e-13
7.79582e-13
1.06008e-12
1.14485e-12
1.17446e-12
1.09165e-13
4.19613e-13
-7.71337e-13
-9.09899e-13
4.97876e-13
2.84414e-14
1.33402e-12
2.10431e-12
4.74338e-13
1.43499e-06
6.98881e-07
2.00598e-06
-6.71243e-07
-2.25342e-07
1.40138e-07
1.8656e-07
-6.26637e-08
-2.26274e-08
1.14136e-08
1.18677e-08
-4.80325e-09
-2.91276e-09
1.10067e-09
7.17318e-10
-3.38657e-10
-2.5801e-10
9.81517e-11
5.99161e-11
-2.54937e-11
-1.74679e-11
7.59627e-12
5.66185e-12
-1.89476e-12
-5.96237e-13
1.02079e-12
1.45496e-12
5.32992e-13
4.49222e-13
1.0448e-12
-5.99451e-13
2.07787e-13
-1.10121e-13
-9.64211e-13
1.63487e-12
-3.2557e-14
1.24462e-12
1.99173e-12
3.93023e-13
-1.40736e-06
-5.3514e-07
-2.53708e-06
4.64998e-07
3.02816e-07
-1.00532e-07
-2.3781e-07
4.34731e-08
2.92377e-08
-9.19605e-09
-1.55703e-08
3.46555e-09
3.67478e-09
-9.24732e-10
-9.57823e-10
2.557e-10
3.30668e-10
-8.82027e-11
-7.78136e-11
1.96723e-11
2.31695e-11
-7.32883e-12
-6.53582e-12
1.46197e-12
2.15002e-12
-4.24851e-13
1.22839e-13
6.48288e-13
8.03369e-13
8.03251e-13
-1.56973e-13
-1.66809e-14
-8.86647e-13
-1.16404e-12
3.24303e-13
1.02359e-14
1.14013e-12
1.94122e-12
1.89735e-13
1.33721e-06
2.36498e-07
2.90155e-06
-2.35714e-07
-3.59875e-07
5.21279e-08
2.72087e-07
-2.28488e-08
-3.49682e-08
5.4134e-09
1.81111e-08
-2.10211e-09
-4.34381e-09
5.87988e-10
1.12532e-09
-1.88664e-10
-3.99199e-10
5.68776e-11
9.0157e-11
-1.82382e-11
-2.90363e-11
4.14984e-12
7.57294e-12
-2.12461e-12
-1.92658e-12
2.54262e-13
1.3287e-12
1.75945e-13
-1.67987e-14
6.85626e-13
-1.02375e-12
-1.98364e-13
-2.67157e-13
-1.28071e-12
1.62716e-12
-1.80786e-14
9.90826e-13
1.83736e-12
6.77626e-14
-1.33643e-06
-4.81095e-08
-3.08513e-06
3.67885e-08
3.89154e-07
-7.9322e-09
-2.89522e-07
3.63977e-09
3.82795e-08
-9.33084e-10
-1.96252e-08
3.11795e-10
4.74313e-09
-1.09758e-10
-1.25711e-09
2.46443e-11
4.37838e-10
-1.32871e-11
-1.04245e-10
1.48407e-12
3.10616e-11
-1.98e-12
-9.44329e-12
-4.24274e-13
2.35679e-12
-4.62959e-13
-4.67129e-13
2.3562e-13
5.04061e-13
5.50331e-13
-4.55326e-13
-4.02841e-13
-1.03163e-12
-1.46561e-12
1.92125e-13
4.63964e-14
9.14299e-13
1.73823e-12
-6.77626e-14
1.32511e-06
-2.21933e-08
3.11399e-06
4.3036e-08
-3.93446e-07
-5.99981e-09
2.92229e-07
3.33594e-09
-3.89008e-08
-1.33552e-10
1.98272e-08
5.82782e-11
-4.82825e-09
5.7441e-12
1.26846e-09
-1.7379e-11
-4.49641e-10
1.17673e-12
1.03749e-10
-3.63795e-12
-3.34658e-11
-4.43508e-13
8.55606e-12
-1.09412e-12
-2.58413e-12
-4.23347e-13
1.25308e-12
7.47353e-14
-3.5657e-13
4.71319e-13
-1.41313e-12
-5.85436e-13
-3.87584e-13
-1.56734e-12
1.5925e-12
9.96004e-14
7.56169e-13
1.59439e-12
-2.30393e-13
-1.30427e-06
1.11183e-07
-3.07695e-06
-1.58557e-07
3.90782e-07
3.2994e-08
-2.89027e-07
-1.48858e-08
3.88255e-08
3.01989e-09
-1.97632e-08
-1.19554e-09
4.81661e-09
3.06363e-10
-1.28467e-09
-9.46798e-11
4.4718e-10
2.61565e-11
-1.07831e-10
-8.97403e-12
3.19282e-11
1.10376e-12
-1.00735e-11
-1.51813e-12
2.23552e-12
-4.61926e-13
-7.07026e-13
5.87537e-15
2.42453e-13
4.55922e-13
-7.39649e-13
-7.84396e-13
-1.08016e-12
-1.70329e-12
1.01494e-13
1.36407e-13
6.07833e-13
1.43296e-12
-3.25261e-13
1.25689e-06
-1.25203e-07
2.95139e-06
1.83218e-07
-3.72674e-07
-3.44236e-08
2.77161e-07
1.66065e-08
-3.70012e-08
-2.76867e-09
1.8874e-08
1.13391e-09
-4.60493e-09
-2.7208e-10
1.21614e-09
6.86484e-11
-4.29997e-10
-2.5897e-11
9.99607e-11
3.87097e-12
-3.23426e-11
-2.76812e-12
8.09346e-12
-5.00817e-13
-2.69157e-12
-8.62836e-13
1.16882e-12
7.18798e-14
-5.70927e-13
4.0443e-13
-1.74804e-12
-9.82377e-13
-4.86731e-13
-1.77976e-12
1.46788e-12
2.23284e-13
4.99869e-13
1.30862e-12
-4.33681e-13
-1.19888e-06
1.8469e-07
-2.8026e-06
-2.67017e-07
3.54857e-07
5.42828e-08
-2.63323e-07
-2.50359e-08
3.53664e-08
4.93578e-09
-1.80122e-08
-1.96752e-09
4.4015e-09
5.08826e-10
-1.17339e-09
-1.51386e-10
4.07971e-10
4.5179e-11
-9.88578e-11
-1.37029e-11
2.90736e-11
2.57449e-12
-9.45712e-12
-2.04394e-12
1.90061e-12
-5.49304e-13
-6.92514e-13
-8.45229e-14
-7.02041e-15
3.96061e-13
-1.0141e-12
-1.13874e-12
-1.06975e-12
-1.85916e-12
6.40315e-14
2.35727e-13
3.75073e-13
1.18312e-12
-5.14996e-13
1.11655e-06
-1.83009e-07
2.58986e-06
2.72946e-07
-3.2561e-07
-5.1966e-08
2.43223e-07
2.50326e-08
-3.23981e-08
-4.35403e-09
1.65535e-08
1.79574e-09
-4.04406e-09
-4.38316e-10
1.06718e-09
1.1915e-10
-3.76495e-10
-4.16901e-11
8.77295e-11
8.05129e-12
-2.85431e-11
-4.09614e-12
6.86388e-12
-2.49536e-13
-2.53444e-12
-1.12518e-12
1.00405e-12
7.22053e-14
-7.35659e-13
3.08986e-13
-1.9838e-12
-1.31862e-12
-5.53683e-13
-1.88658e-12
1.35482e-12
4.12072e-13
2.93054e-13
1.03469e-12
-5.96311e-13
-1.02661e-06
2.2695e-07
-2.36888e-06
-3.36066e-07
2.98677e-07
6.72457e-08
-2.22544e-07
-3.1404e-08
2.98399e-08
6.05623e-09
-1.51961e-08
-2.42433e-09
3.72489e-09
6.26653e-10
-9.89724e-10
-1.82496e-10
3.42856e-10
5.56459e-11
-8.37743e-11
-1.6362e-11
2.41974e-11
3.24957e-12
-8.23859e-12
-2.43599e-12
1.48146e-12
-6.10885e-13
-6.22861e-13
-1.2313e-13
-2.73973e-13
3.00994e-13
-1.22139e-12
-1.3813e-12
-9.2082e-13
-1.89793e-12
9.19453e-14
3.97395e-13
1.45327e-13
8.10247e-13
-5.82759e-13
9.17499e-07
-2.20248e-07
2.10006e-06
3.34198e-07
-2.62835e-07
-6.39943e-08
1.97196e-07
3.07674e-08
-2.6208e-08
-5.44033e-09
1.33984e-08
2.24623e-09
-3.28073e-09
-5.51266e-10
8.62874e-10
1.53212e-10
-3.03572e-10
-5.21352e-11
7.06618e-11
1.06417e-11
-2.33838e-11
-5.03761e-12
5.19171e-12
-1.18544e-13
-2.21548e-12
-1.28066e-12
8.00724e-13
6.75268e-14
-8.06333e-13
2.26059e-13
-2.05783e-12
-1.57371e-12
-5.79712e-13
-2.01438e-12
1.1157e-12
5.98788e-13
8.21614e-14
6.16351e-13
-6.36969e-13
-8.03549e-07
2.46184e-07
-1.82986e-06
-3.73129e-07
2.29608e-07
7.37463e-08
-1.71869e-07
-3.4799e-08
2.30139e-08
6.59864e-09
-1.17034e-08
-2.65392e-09
2.88268e-09
6.83737e-10
-7.61798e-10
-1.98153e-10
2.62079e-10
5.92009e-11
-6.50578e-11
-1.85082e-11
1.82277e-11
2.8841e-12
-6.59092e-12
-3.07597e-12
1.00234e-12
-1.06242e-12
-5.07139e-13
-4.77797e-13
-5.41321e-13
-5.64308e-14
-1.53026e-12
-1.8205e-12
-8.35876e-13
-2.07131e-12
9.9443e-14
5.7497e-13
-1.02779e-13
4.54697e-13
-5.82759e-13
6.76604e-07
-2.34377e-07
1.53048e-06
3.61871e-07
-1.90661e-07
-6.88757e-08
1.43669e-07
3.34197e-08
-1.90691e-08
-5.90279e-09
9.73325e-09
2.45324e-09
-2.39709e-09
-6.08749e-10
6.22846e-10
1.65761e-10
-2.21386e-10
-5.89054e-11
4.94336e-11
1.08702e-11
-1.84195e-11
-6.07246e-12
2.45253e-12
-3.06061e-13
-2.54256e-12
-1.57884e-12
-2.70889e-14
1.26799e-14
-1.33561e-12
2.66153e-13
-2.36155e-12
-1.51259e-12
-6.60464e-13
-1.65099e-12
9.30223e-13
1.03028e-12
-2.5283e-14
4.40812e-13
-7.31836e-13
-5.4911e-07
2.65128e-07
-1.23748e-06
-4.04174e-07
1.55205e-07
7.99087e-08
-1.16152e-07
-3.75138e-08
1.56196e-08
7.01937e-09
-7.88876e-09
-2.82513e-09
1.95411e-09
7.13613e-10
-5.1599e-10
-2.06708e-10
1.73351e-10
6.12644e-11
-4.46359e-11
-1.74645e-11
1.2041e-11
4.21161e-12
-4.33742e-12
-1.77467e-12
9.76404e-13
-1.516e-13
3.05922e-13
4.16513e-13
8.91713e-14
7.95786e-13
-8.02031e-13
-1.10935e-12
3.97536e-14
-1.63483e-12
5.40871e-13
6.10997e-13
-2.65741e-13
2.63709e-13
-6.77626e-13
4.10064e-07
-2.27046e-07
9.13216e-07
3.62177e-07
-1.1281e-07
-6.92728e-08
8.56577e-08
3.43121e-08
-1.14254e-08
-6.46107e-09
5.77724e-09
2.65964e-09
-1.4472e-09
-6.99062e-10
3.70547e-10
1.95509e-10
-1.29551e-10
-6.57405e-11
3.1383e-11
1.52542e-11
-9.60408e-12
-6.87871e-12
2.41115e-12
-4.01164e-13
-7.11491e-13
-2.39989e-12
9.06377e-13
-5.29714e-13
-4.02731e-13
-5.2237e-13
-1.94215e-12
-2.75894e-12
-1.06359e-12
-2.8825e-12
3.33836e-13
4.97432e-13
-1.48176e-13
2.21626e-13
-5.42101e-13
-2.74933e-07
2.68588e-07
-6.20312e-07
-4.27616e-07
7.78492e-08
7.11582e-08
-5.78066e-08
-3.41972e-08
7.62394e-09
4.83836e-09
-3.81666e-09
-2.06828e-09
9.43648e-10
4.73371e-10
-2.40778e-10
-1.06167e-10
7.90649e-11
3.48091e-11
-2.30075e-11
-8.26022e-12
2.32421e-12
6.755e-13
-5.21221e-12
-1.95626e-12
-2.21811e-12
-1.22307e-12
-1.95846e-12
7.84494e-15
-2.87858e-12
-1.36715e-13
-3.69929e-12
-2.43016e-12
-1.32148e-12
-1.49953e-12
3.85223e-13
1.66883e-12
-1.72299e-13
-3.34929e-13
-4.20128e-13
1.15905e-07
2.63854e-07
-4.08882e-08
2.84479e-08
-4.85386e-09
2.22175e-09
-5.76443e-10
1.6942e-10
-5.2516e-11
1.54228e-11
-3.60497e-12
2.03288e-12
1.00289e-12
1.82959e-12
3.11708e-13
-2.30393e-13
1.49078e-12
9.48677e-13
-5.82759e-13
)
;

boundaryField
{
    movingWall
    {
        type            calculated;
        value           nonuniform List<scalar> 
20
(
-4.5036e-07
6.8217e-07
-1.54462e-07
7.26861e-08
-1.57903e-08
6.08262e-09
-1.63912e-09
4.86238e-10
-1.47397e-10
4.23652e-11
-1.15196e-11
4.3097e-12
-2.43945e-13
2.24972e-12
1.40946e-12
-7.86047e-13
3.25261e-13
2.6563e-12
-7.58942e-13
-4.06576e-13
)
;
    }
    fixedWalls
    {
        type            calculated;
        value           nonuniform List<scalar> 
60
(
1.50909e-07
-6.07861e-07
1.11071e-06
-2.0427e-06
3.44046e-06
-4.51074e-06
4.98374e-06
-5.07996e-06
5.03557e-06
-4.81321e-06
4.5628e-06
-4.19342e-06
3.8274e-06
-3.3735e-06
2.93301e-06
-2.44064e-06
1.97188e-06
-1.44163e-06
9.87536e-07
-4.5036e-07
7.31836e-13
4.06576e-13
8.13152e-13
1.35525e-13
6.50521e-13
-2.71051e-13
4.06576e-13
-5.42101e-13
8.13152e-14
-7.31836e-13
-1.35525e-13
-8.94467e-13
-2.98156e-13
-8.67362e-13
-4.06576e-13
-7.58942e-13
-7.04731e-13
-6.50521e-13
-4.33681e-13
-4.06576e-13
1.50909e-07
-6.28959e-07
1.01141e-07
-5.21527e-08
7.47683e-09
-3.2183e-09
7.60239e-10
-1.80823e-10
5.95671e-11
-1.17e-11
5.65027e-12
4.91923e-13
1.81207e-12
1.36097e-12
1.36923e-12
8.70131e-13
-3.1962e-13
-4.78454e-13
2.22637e-12
7.31836e-13
)
;
    }
    frontAndBack
    {
        type            empty;
    }
}


// ************************************************************************* //
