/*--------------------------------*- C++ -*----------------------------------*\
| =========                 |                                                 |
| \\      /  F ield         | OpenFOAM: The Open Source CFD Toolbox           |
|  \\    /   O peration     | Version:  2506                                  |
|   \\  /    A nd           | Website:  www.openfoam.com                      |
|    \\/     M anipulation  |                                                 |
\*---------------------------------------------------------------------------*/
FoamFile
{
    version     2.0;
    format      ascii;
    arch        "LSB;label=32;scalar=64";
    class       volSymmTensorField;
    location    "3.5";
    object      turbulenceProperties:devReff;
}
// * * * * * * * * * * * * * * * * * * * * * * * * * * * * * * * * * * * * * //

dimensions      [0 2 -2 0 0 0 0];

internalField   nonuniform List<symmTensor> 
400
(
(-1.66719e-11 -2.10473e-10 -0 1.53097e-11 -0 1.36219e-12)
(1.43842e-11 2.83701e-10 -0 -8.7069e-12 -0 -5.67733e-12)
(-2.48412e-12 -6.3461e-11 -0 1.57117e-12 -0 9.12951e-13)
(1.07027e-12 1.51449e-11 -0 -5.99515e-13 -0 -4.70758e-13)
(-1.64875e-13 -3.37952e-12 -0 9.73858e-14 -0 6.74894e-14)
(5.81151e-14 7.85413e-13 -0 -2.90651e-14 -0 -2.905e-14)
(-1.69725e-14 -1.76643e-13 -0 1.01103e-14 -0 6.86226e-15)
(1.41019e-15 4.16361e-14 -0 2.2201e-16 -0 -1.6322e-15)
(-2.03274e-15 -7.75869e-15 -0 1.49506e-15 -0 5.37678e-16)
(-2.96446e-16 3.09258e-15 -0 4.02056e-16 -0 -1.0561e-16)
(-2.99843e-16 5.74421e-16 -0 2.48841e-16 -0 5.10018e-17)
(-1.06391e-16 1.09211e-15 -0 1.01951e-16 -0 4.4403e-18)
(-1.20899e-16 9.76144e-16 -0 1.04542e-16 -0 1.63565e-17)
(-1.98369e-16 9.5836e-16 -0 1.86084e-16 -0 1.22847e-17)
(-3.14264e-16 8.30295e-16 -0 3.01904e-16 -0 1.23592e-17)
(-3.87029e-16 6.3035e-16 -0 3.79175e-16 -0 7.85415e-18)
(-3.28774e-16 4.24126e-16 -0 3.31659e-16 -0 -2.88502e-18)
(-2.02494e-16 3.02891e-16 -0 2.06813e-16 -0 -4.31872e-18)
(-2.51478e-16 2.4369e-16 -0 2.31382e-16 -0 2.00961e-17)
(-2.90561e-16 -1.1009e-17 -0 2.83859e-16 -0 6.70194e-18)
(5.52247e-11 1.99716e-10 -0 -4.95074e-11 -0 -5.71732e-12)
(-4.98202e-11 -3.01482e-10 -0 2.99551e-11 -0 1.98651e-11)
(9.5918e-12 6.6268e-11 -0 -5.97994e-12 -0 -3.61186e-12)
(-4.16711e-12 -1.58667e-11 -0 2.3535e-12 -0 1.81361e-12)
(7.54116e-13 3.4842e-12 -0 -4.34263e-13 -0 -3.19853e-13)
(-2.8722e-13 -7.97241e-13 -0 1.60179e-13 -0 1.27041e-13)
(6.88053e-14 1.79161e-13 -0 -3.57033e-14 -0 -3.3102e-14)
(-2.03825e-14 -4.04096e-14 -0 1.17312e-14 -0 8.65131e-15)
(4.98975e-15 7.61322e-15 -0 -2.25794e-15 -0 -2.73181e-15)
(-1.78847e-15 -2.63116e-15 -0 1.0588e-15 -0 7.29668e-16)
(3.42555e-16 -9.03777e-17 -0 -1.57495e-16 -0 -1.8506e-16)
(-1.19441e-16 -3.59082e-16 -0 4.97782e-17 -0 6.96632e-17)
(1.25914e-18 -1.27072e-16 -0 3.62586e-18 -0 -4.885e-18)
(-1.53523e-16 -5.26018e-17 -0 1.37405e-16 -0 1.61181e-17)
(-2.77424e-16 -1.35457e-17 -0 2.65717e-16 -0 1.17073e-17)
(-3.53723e-16 -4.57247e-17 -0 3.52552e-16 -0 1.17069e-18)
(-3.12724e-16 -1.09489e-16 -0 3.20641e-16 -0 -7.91676e-18)
(-2.10227e-16 -7.24331e-17 -0 2.03075e-16 -0 7.15183e-18)
(-2.57918e-16 1.52772e-17 -0 2.36577e-16 -0 2.13406e-17)
(-2.84402e-16 -1.9476e-16 -0 2.80565e-16 -0 3.83718e-18)
(-9.5486e-11 -2.21703e-10 -0 8.45676e-11 -0 1.09184e-11)
(8.74843e-11 3.3157e-10 -0 -5.2602e-11 -0 -3.48823e-11)
(-1.697e-11 -7.30408e-11 -0 1.06728e-11 -0 6.29721e-12)
(7.30933e-12 1.75541e-11 -0 -4.1328e-12 -0 -3.17652e-12)
(-1.36252e-12 -3.86644e-12 -0 8.109e-13 -0 5.51615e-13)
(4.91965e-13 8.83319e-13 -0 -2.71216e-13 -0 -2.20749e-13)
(-1.30063e-13 -2.07539e-13 -0 7.28429e-14 -0 5.722e-14)
(3.17701e-14 4.0893e-14 -0 -1.71273e-14 -0 -1.46428e-14)
(-1.05998e-14 -1.19649e-14 -0 5.75683e-15 -0 4.84294e-15)
(2.63055e-15 1.02971e-15 -0 -1.47269e-15 -0 -1.15786e-15)
(-5.46237e-16 -1.127e-15 -0 1.85782e-16 -0 3.60454e-16)
(3.82179e-16 -2.72344e-16 -0 -2.95243e-16 -0 -8.69365e-17)
(3.76389e-17 -1.88579e-16 -0 -7.36704e-17 -0 3.60315e-17)
(-3.69124e-17 -3.39261e-17 -0 3.5275e-17 -0 1.6374e-18)
(-2.15818e-16 3.38918e-19 -0 2.0221e-16 -0 1.3608e-17)
(-3.15674e-16 -5.95504e-17 -0 3.06699e-16 -0 8.9749e-18)
(-2.75818e-16 -1.61648e-16 -0 2.82601e-16 -0 -6.78301e-18)
(-1.58974e-16 -1.12157e-16 -0 1.67529e-16 -0 -8.55474e-18)
(-2.32003e-16 2.35877e-17 -0 2.13713e-16 -0 1.82899e-17)
(-2.82894e-16 -3.26867e-16 -0 2.74978e-16 -0 7.91616e-18)
(1.32735e-10 2.4951e-10 -0 -1.12053e-10 -0 -2.0682e-11)
(-1.25954e-10 -3.64442e-10 -0 7.52055e-11 -0 5.07489e-11)
(2.43112e-11 8.06823e-11 -0 -1.50246e-11 -0 -9.28655e-12)
(-1.06979e-11 -1.94394e-11 -0 6.06163e-12 -0 4.6363e-12)
(1.92971e-12 4.2342e-12 -0 -1.13841e-12 -0 -7.91298e-13)
(-7.30894e-13 -1.00232e-12 -0 4.05316e-13 -0 3.25578e-13)
(1.8362e-13 2.17202e-13 -0 -1.02093e-13 -0 -8.15272e-14)
(-4.73702e-14 -5.25226e-14 -0 2.56361e-14 -0 2.17341e-14)
(1.58344e-14 9.04009e-15 -0 -8.81955e-15 -0 -7.01488e-15)
(-3.06481e-15 -3.68924e-15 -0 1.33392e-15 -0 1.7309e-15)
(1.62417e-15 -2.19421e-16 -0 -1.11974e-15 -0 -5.04428e-16)
(1.09471e-16 -5.0195e-16 -0 -2.57112e-16 -0 1.47642e-16)
(3.33337e-16 -1.30571e-16 -0 -3.01252e-16 -0 -3.20848e-17)
(4.1279e-17 -2.25531e-18 -0 -6.10325e-17 -0 1.97535e-17)
(-1.13472e-16 3.93551e-17 -0 1.03756e-16 -0 9.71586e-18)
(-2.17133e-16 -5.49322e-17 -0 2.17845e-16 -0 -7.11312e-19)
(-2.02852e-16 -2.16241e-16 -0 2.1432e-16 -0 -1.14675e-17)
(-1.50693e-16 -1.49713e-16 -0 1.41492e-16 -0 9.20145e-18)
(-2.12667e-16 4.70036e-17 -0 1.88944e-16 -0 2.37221e-17)
(-2.46455e-16 -4.51337e-16 -0 2.45259e-16 -0 1.19616e-18)
(-1.57713e-10 -2.8434e-10 -0 1.22284e-10 -0 3.54285e-11)
(1.57355e-10 3.9638e-10 -0 -9.15051e-11 -0 -6.58497e-11)
(-3.07221e-11 -8.9778e-11 -0 1.83159e-11 -0 1.24062e-11)
(1.37624e-11 2.13516e-11 -0 -7.72365e-12 -0 -6.03873e-12)
(-2.48225e-12 -4.79538e-12 -0 1.43705e-12 -0 1.0452e-12)
(9.73178e-13 1.10555e-12 -0 -5.4101e-13 -0 -4.32169e-13)
(-2.34637e-13 -2.57409e-13 -0 1.28608e-13 -0 1.06029e-13)
(6.69e-14 5.29904e-14 -0 -3.76973e-14 -0 -2.92027e-14)
(-1.83478e-14 -1.47835e-14 -0 9.15942e-15 -0 9.18834e-15)
(6.14891e-15 1.6488e-15 -0 -3.85586e-15 -0 -2.29304e-15)
(-5.45086e-16 -1.23665e-15 -0 -1.26327e-16 -0 6.71413e-16)
(1.0402e-15 -1.6886e-16 -0 -8.50698e-16 -0 -1.89507e-16)
(3.09228e-16 -9.27942e-17 -0 -3.62946e-16 -0 5.37184e-17)
(2.25086e-16 9.01842e-17 -0 -2.15967e-16 -0 -9.11851e-18)
(-8.64237e-18 1.02208e-16 -0 -2.90384e-18 -0 1.15462e-17)
(-1.30271e-16 -3.59764e-17 -0 1.25242e-16 -0 5.02918e-18)
(-1.29034e-16 -2.3993e-16 -0 1.37231e-16 -0 -8.19686e-18)
(-6.20337e-17 -1.666e-16 -0 7.20917e-17 -0 -1.00579e-17)
(-1.57409e-16 7.00015e-17 -0 1.40574e-16 -0 1.68353e-17)
(-2.22479e-16 -5.55371e-16 -0 2.15698e-16 -0 6.78136e-18)
(1.70002e-10 3.17372e-10 -0 -1.23125e-10 -0 -4.68776e-11)
(-1.75248e-10 -4.22582e-10 -0 9.88277e-11 -0 7.642e-11)
(3.46997e-11 9.78044e-11 -0 -2.00334e-11 -0 -1.46663e-11)
(-1.55508e-11 -2.31519e-11 -0 8.52895e-12 -0 7.02181e-12)
(2.89839e-12 5.32451e-12 -0 -1.64803e-12 -0 -1.25035e-12)
(-1.11433e-12 -1.24487e-12 -0 6.04554e-13 -0 5.09774e-13)
(2.85142e-13 2.8441e-13 -0 -1.58542e-13 -0 -1.26599e-13)
(-7.3596e-14 -6.66871e-14 -0 3.8713e-14 -0 3.4883e-14)
(2.624e-14 1.37191e-14 -0 -1.51053e-14 -0 -1.11348e-14)
(-4.37328e-15 -4.0543e-15 -0 1.64416e-15 -0 2.72912e-15)
(2.91177e-15 3.77456e-16 -0 -2.07986e-15 -0 -8.31908e-16)
(3.3222e-16 -2.74686e-16 -0 -5.5444e-16 -0 2.22221e-16)
(6.82529e-16 1.11599e-16 -0 -6.19312e-16 -0 -6.32178e-17)
(2.69305e-16 1.95385e-16 -0 -2.91978e-16 -0 2.26727e-17)
(1.11233e-16 1.93078e-16 -0 -1.16327e-16 -0 5.09423e-18)
(-8.62839e-18 1.0807e-17 -0 1.38638e-17 -0 -5.23541e-18)
(-2.94852e-17 -2.51254e-16 -0 4.54192e-17 -0 -1.5934e-17)
(-4.62092e-17 -1.72551e-16 -0 3.57318e-17 -0 1.04774e-17)
(-1.2541e-16 1.03069e-16 -0 1.02024e-16 -0 2.33853e-17)
(-1.61389e-16 -6.31812e-16 -0 1.64036e-16 -0 -2.64718e-18)
(-1.76982e-10 -3.46039e-10 -0 1.24926e-10 -0 5.20552e-11)
(1.8419e-10 4.45805e-10 -0 -1.02294e-10 -0 -8.18954e-11)
(-3.65878e-11 -1.04639e-10 -0 2.07267e-11 -0 1.58612e-11)
(1.64343e-11 2.47663e-11 -0 -8.88614e-12 -0 -7.54819e-12)
(-3.07595e-12 -5.79741e-12 -0 1.70349e-12 -0 1.37246e-12)
(1.20841e-12 1.36404e-12 -0 -6.51138e-13 -0 -5.57271e-13)
(-2.99615e-13 -3.20196e-13 -0 1.59847e-13 -0 1.39768e-13)
(8.74534e-14 7.35808e-14 -0 -4.8381e-14 -0 -3.90724e-14)
(-2.4237e-14 -1.78624e-14 -0 1.18386e-14 -0 1.23984e-14)
(8.39823e-15 3.76526e-15 -0 -5.26874e-15 -0 -3.12949e-15)
(-7.35689e-16 -9.39393e-16 -0 -1.88151e-16 -0 9.2384e-16)
(1.4617e-15 3.37734e-16 -0 -1.19354e-15 -0 -2.68154e-16)
(4.78629e-16 2.10845e-16 -0 -5.47344e-16 -0 6.8715e-17)
(4.38037e-16 3.53634e-16 -0 -4.18708e-16 -0 -1.93294e-17)
(1.91275e-16 2.8955e-16 -0 -2.00756e-16 -0 9.48018e-18)
(7.53451e-17 6.38684e-17 -0 -7.65132e-17 -0 1.16818e-18)
(4.36508e-17 -2.38573e-16 -0 -3.28203e-17 -0 -1.08305e-17)
(4.78357e-17 -1.6067e-16 -0 -3.69964e-17 -0 -1.08393e-17)
(-6.1645e-17 1.37092e-16 -0 4.68168e-17 -0 1.48283e-17)
(-1.28382e-16 -6.86073e-16 -0 1.2438e-16 -0 4.00208e-18)
(1.77295e-10 3.69249e-10 -0 -1.24074e-10 -0 -5.32213e-11)
(-1.85002e-10 -4.66468e-10 -0 1.02039e-10 -0 8.29634e-11)
(3.67265e-11 1.10456e-10 -0 -2.06425e-11 -0 -1.60841e-11)
(-1.64931e-11 -2.61215e-11 -0 8.84185e-12 -0 7.65128e-12)
(3.09979e-12 6.18344e-12 -0 -1.70287e-12 -0 -1.39693e-12)
(-1.20346e-12 -1.46151e-12 -0 6.37706e-13 -0 5.65755e-13)
(3.09161e-13 3.45598e-13 -0 -1.66599e-13 -0 -1.42562e-13)
(-8.1797e-14 -8.15389e-14 -0 4.20741e-14 -0 3.97229e-14)
(2.89579e-14 1.93497e-14 -0 -1.62373e-14 -0 -1.27205e-14)
(-5.08494e-15 -4.32068e-15 -0 1.91405e-15 -0 3.1709e-15)
(3.24493e-15 1.38446e-15 -0 -2.27616e-15 -0 -9.68763e-16)
(3.46812e-16 1.27588e-16 -0 -6.06772e-16 -0 2.5996e-16)
(8.09585e-16 5.0587e-16 -0 -7.30661e-16 -0 -7.89242e-17)
(3.88825e-16 4.74677e-16 -0 -4.1319e-16 -0 2.43644e-17)
(2.71883e-16 4.02321e-16 -0 -2.74079e-16 -0 2.19594e-18)
(1.74981e-16 1.29983e-16 -0 -1.65232e-16 -0 -9.74913e-18)
(1.32785e-16 -2.13881e-16 -0 -1.12726e-16 -0 -2.0059e-17)
(5.11762e-17 -1.42618e-16 -0 -6.31168e-17 -0 1.19406e-17)
(-3.14399e-17 1.77887e-16 -0 1.00387e-17 -0 2.14013e-17)
(-6.18063e-17 -7.14994e-16 -0 6.74353e-17 -0 -5.62898e-18)
(-1.7495e-10 -3.89495e-10 -0 1.22082e-10 -0 5.28671e-11)
(1.82689e-10 4.85769e-10 -0 -1.00457e-10 -0 -8.22323e-11)
(-3.6313e-11 -1.15646e-10 -0 2.03203e-11 -0 1.59928e-11)
(1.6314e-11 2.73523e-11 -0 -8.71654e-12 -0 -7.59744e-12)
(-3.06547e-12 -6.51021e-12 -0 1.66819e-12 -0 1.39728e-12)
(1.20439e-12 1.54752e-12 -0 -6.3859e-13 -0 -5.65803e-13)
(-3.00894e-13 -3.65833e-13 -0 1.57887e-13 -0 1.43007e-13)
(8.72236e-14 8.82244e-14 -0 -4.70402e-14 -0 -4.01834e-14)
(-2.48367e-14 -2.01092e-14 -0 1.20627e-14 -0 1.2774e-14)
(8.25052e-15 5.55755e-15 -0 -4.99535e-15 -0 -3.25516e-15)
(-9.097e-16 -5.4606e-16 -0 -5.18085e-17 -0 9.61509e-16)
(1.40896e-15 8.91794e-16 -0 -1.12532e-15 -0 -2.83637e-16)
(4.65072e-16 5.60696e-16 -0 -5.35255e-16 -0 7.01831e-17)
(4.9041e-16 6.41905e-16 -0 -4.67748e-16 -0 -2.26615e-17)
(2.9614e-16 4.95457e-16 -0 -3.03998e-16 -0 7.85776e-18)
(2.19329e-16 1.95834e-16 -0 -2.1668e-16 -0 -2.64977e-18)
(1.77118e-16 -1.78285e-16 -0 -1.64274e-16 -0 -1.28442e-17)
(1.31326e-16 -1.12269e-16 -0 -1.21618e-16 -0 -9.70758e-18)
(2.73458e-17 2.17155e-16 -0 -3.93184e-17 -0 1.19726e-17)
(-2.98035e-17 -7.1922e-16 -0 2.89008e-17 -0 9.0273e-19)
(1.68114e-10 4.07831e-10 -0 -1.17494e-10 -0 -5.06196e-11)
(-1.75331e-10 -5.04224e-10 -0 9.63583e-11 -0 7.89724e-11)
(3.47503e-11 1.2054e-10 -0 -1.94367e-11 -0 -1.53136e-11)
(-1.5626e-11 -2.8483e-11 -0 8.33398e-12 -0 7.29206e-12)
(2.92831e-12 6.81812e-12 -0 -1.59316e-12 -0 -1.33515e-12)
(-1.14297e-12 -1.61797e-12 -0 6.01711e-13 -0 5.41257e-13)
(2.91827e-13 3.87245e-13 -0 -1.55107e-13 -0 -1.3672e-13)
(-7.85029e-14 -9.13266e-14 -0 4.02673e-14 -0 3.82355e-14)
(2.70022e-14 2.299e-14 -0 -1.47626e-14 -0 -1.22396e-14)
(-5.21838e-15 -4.33192e-15 -0 2.14826e-15 -0 3.07012e-15)
(2.84905e-15 2.15222e-15 -0 -1.90919e-15 -0 -9.39854e-16)
(1.7154e-16 5.14388e-16 -0 -4.23373e-16 -0 2.51833e-16)
(6.96497e-16 8.5638e-16 -0 -6.16466e-16 -0 -8.00313e-17)
(3.6476e-16 7.28059e-16 -0 -3.87726e-16 -0 2.29655e-17)
(3.17263e-16 5.92192e-16 -0 -3.19094e-16 -0 1.83034e-18)
(2.76342e-16 2.57774e-16 -0 -2.62489e-16 -0 -1.38531e-17)
(2.36007e-16 -1.35077e-16 -0 -2.13149e-16 -0 -2.2858e-17)
(1.1553e-16 -7.89854e-17 -0 -1.28313e-16 -0 1.27828e-17)
(4.73494e-17 2.53749e-16 -0 -6.56105e-17 -0 1.82611e-17)
(2.90336e-17 -7.03517e-16 -0 -2.13277e-17 -0 -7.70596e-18)
(-1.59953e-10 -4.24621e-10 -0 1.11889e-10 -0 4.80637e-11)
(1.66765e-10 5.21639e-10 -0 -9.16068e-11 -0 -7.51584e-11)
(-3.30931e-11 -1.25051e-10 -0 1.84938e-11 -0 1.45993e-11)
(1.48754e-11 2.95447e-11 -0 -7.92777e-12 -0 -6.94762e-12)
(-2.7917e-12 -7.08679e-12 -0 1.51367e-12 -0 1.27803e-12)
(1.09621e-12 1.68943e-12 -0 -5.78336e-13 -0 -5.17871e-13)
(-2.75227e-13 -4.00729e-13 -0 1.44095e-13 -0 1.31132e-13)
(7.86744e-14 9.83468e-14 -0 -4.18416e-14 -0 -3.68328e-14)
(-2.31955e-14 -2.17374e-14 -0 1.14879e-14 -0 1.17076e-14)
(7.08347e-15 6.75207e-15 -0 -4.09076e-15 -0 -2.99271e-15)
(-1.15121e-15 -2.35591e-16 -0 2.68826e-16 -0 8.8238e-16)
(1.06199e-15 1.301e-15 -0 -7.99083e-16 -0 -2.62902e-16)
(2.88916e-16 8.30704e-16 -0 -3.50784e-16 -0 6.18688e-17)
(3.9176e-16 8.57131e-16 -0 -3.70443e-16 -0 -2.13162e-17)
(2.8749e-16 6.53587e-16 -0 -2.94323e-16 -0 6.83327e-18)
(2.75993e-16 3.12763e-16 -0 -2.69055e-16 -0 -6.93792e-18)
(2.43077e-16 -9.61158e-17 -0 -2.28584e-16 -0 -1.44931e-17)
(1.71986e-16 -4.40504e-17 -0 -1.63874e-16 -0 -8.1122e-18)
(9.24878e-17 2.88937e-16 -0 -1.01854e-16 -0 9.36661e-18)
(5.42807e-17 -6.72408e-16 -0 -5.29358e-17 -0 -1.34493e-18)
(1.48324e-10 4.40324e-10 -0 -1.04078e-10 -0 -4.42461e-11)
(-1.54354e-10 -5.38346e-10 -0 8.48337e-11 -0 6.95207e-11)
(3.05336e-11 1.29361e-10 -0 -1.70793e-11 -0 -1.34544e-11)
(-1.37421e-11 -3.05434e-11 -0 7.32159e-12 -0 6.42048e-12)
(2.56828e-12 7.35167e-12 -0 -1.39413e-12 -0 -1.17414e-12)
(-1.00495e-12 -1.74783e-12 -0 5.28447e-13 -0 4.76505e-13)
(2.55399e-13 4.20196e-13 -0 -1.34948e-13 -0 -1.20451e-13)
(-6.95793e-14 -9.91705e-14 -0 3.59259e-14 -0 3.36533e-14)
(2.30551e-14 2.55719e-14 -0 -1.22931e-14 -0 -1.0762e-14)
(-5.0723e-15 -4.41313e-15 -0 2.36708e-15 -0 2.70522e-15)
(2.11273e-15 2.65963e-15 -0 -1.28379e-15 -0 -8.28932e-16)
(-1.34236e-16 7.69842e-16 -0 -8.5844e-17 -0 2.2008e-16)
(4.2119e-16 1.0855e-15 -0 -3.47722e-16 -0 -7.34671e-17)
(2.16712e-16 8.86076e-16 -0 -2.36469e-16 -0 1.9757e-17)
(2.54277e-16 7.13208e-16 -0 -2.55879e-16 -0 1.60134e-18)
(2.86756e-16 3.54013e-16 -0 -2.69431e-16 -0 -1.73244e-17)
(2.68547e-16 -4.98785e-17 -0 -2.43831e-16 -0 -2.47156e-17)
(1.36672e-16 -1.02784e-17 -0 -1.49642e-16 -0 1.29701e-17)
(9.72638e-17 3.13093e-16 -0 -1.12985e-16 -0 1.57214e-17)
(1.05443e-16 -6.23913e-16 -0 -9.6022e-17 -0 -9.42074e-18)
(-1.36018e-10 -4.54463e-10 -0 9.55615e-11 -0 4.04565e-11)
(1.41513e-10 5.53732e-10 -0 -7.7771e-11 -0 -6.37423e-11)
(-2.80339e-11 -1.33265e-10 -0 1.56764e-11 -0 1.23575e-11)
(1.26083e-11 3.1461e-11 -0 -6.71593e-12 -0 -5.89236e-12)
(-2.36269e-12 -7.57762e-12 -0 1.28013e-12 -0 1.08256e-12)
(9.26894e-13 1.80876e-12 -0 -4.88131e-13 -0 -4.38763e-13)
(-2.33738e-13 -4.29758e-13 -0 1.22478e-13 -0 1.11261e-13)
(6.5745e-14 1.06296e-13 -0 -3.4585e-14 -0 -3.116e-14)
(-2.01696e-14 -2.31613e-14 -0 1.02809e-14 -0 9.88863e-15)
(5.44765e-15 7.56799e-15 -0 -2.90965e-15 -0 -2.538e-15)
(-1.41094e-15 -7.78457e-17 -0 6.67982e-16 -0 7.42961e-16)
(5.56419e-16 1.54193e-15 -0 -3.30834e-16 -0 -2.25585e-16)
(3.95782e-19 9.73826e-16 -0 -5.01756e-17 -0 4.97798e-17)
(1.80863e-16 9.6298e-16 -0 -1.62674e-16 -0 -1.81885e-17)
(1.82007e-16 7.30607e-16 -0 -1.86904e-16 -0 4.89699e-18)
(2.46546e-16 3.86692e-16 -0 -2.3592e-16 -0 -1.06257e-17)
(2.40718e-16 -1.9182e-17 -0 -2.25553e-16 -0 -1.51654e-17)
(1.60849e-16 1.81186e-17 -0 -1.56464e-16 -0 -4.38422e-18)
(1.24998e-16 3.34765e-16 -0 -1.31332e-16 -0 6.33438e-18)
(1.25618e-16 -5.661e-16 -0 -1.22428e-16 -0 -3.19014e-18)
(1.21082e-10 4.67652e-10 -0 -8.53512e-11 -0 -3.57303e-11)
(-1.25724e-10 -5.68263e-10 -0 6.91408e-11 -0 5.65837e-11)
(2.48242e-11 1.36949e-10 -0 -1.38969e-11 -0 -1.09273e-11)
(-1.11807e-11 -3.23181e-11 -0 5.95524e-12 -0 5.22545e-12)
(2.08495e-12 7.80185e-12 -0 -1.13088e-12 -0 -9.54071e-13)
(-8.1674e-13 -1.85667e-12 -0 4.29353e-13 -0 3.87387e-13)
(2.06798e-13 4.47383e-13 -0 -1.08796e-13 -0 -9.80021e-14)
(-5.70413e-14 -1.05559e-13 -0 2.97419e-14 -0 2.72994e-14)
(1.79645e-14 2.75627e-14 -0 -9.2496e-15 -0 -8.71489e-15)
(-4.71022e-15 -4.56499e-15 -0 2.51794e-15 -0 2.19228e-15)
(1.2006e-15 2.9583e-15 -0 -5.25736e-16 -0 -6.74867e-16)
(-5.0781e-16 8.75061e-16 -0 3.33745e-16 -0 1.74065e-16)
(4.38658e-17 1.17151e-15 -0 1.9055e-17 -0 -6.29208e-17)
(-1.83168e-17 9.2613e-16 -0 2.81205e-18 -0 1.55048e-17)
(1.0891e-16 7.42334e-16 -0 -1.1047e-16 -0 1.56001e-18)
(2.1916e-16 3.95511e-16 -0 -2.00514e-16 -0 -1.86461e-17)
(2.33084e-16 2.21654e-17 -0 -2.08039e-16 -0 -2.50448e-17)
(1.04111e-16 4.53422e-17 -0 -1.16816e-16 -0 1.27049e-17)
(1.12681e-16 3.36626e-16 -0 -1.23692e-16 -0 1.10111e-17)
(1.68067e-16 -4.98517e-16 -0 -1.58885e-16 -0 -9.18174e-18)
(-1.05793e-10 -4.78861e-10 -0 7.46571e-11 -0 3.11357e-11)
(1.09829e-10 5.81138e-10 -0 -6.03806e-11 -0 -4.94481e-11)
(-2.17098e-11 -1.40145e-10 -0 1.21454e-11 -0 9.56446e-12)
(9.77393e-12 3.30696e-11 -0 -5.20315e-12 -0 -4.57077e-12)
(-1.8273e-12 -7.98144e-12 -0 9.88691e-13 -0 8.38606e-13)
(7.16298e-13 1.90669e-12 -0 -3.76551e-13 -0 -3.39748e-13)
(-1.81518e-13 -4.53026e-13 -0 9.518e-14 -0 8.63377e-14)
(4.98908e-14 1.12645e-13 -0 -2.58293e-14 -0 -2.40615e-14)
(-1.62548e-14 -2.43036e-14 -0 8.64129e-15 -0 7.61349e-15)
(3.50256e-15 8.11759e-15 -0 -1.53393e-15 -0 -1.96863e-15)
(-1.67462e-15 -6.32494e-17 -0 1.10621e-15 -0 5.68404e-16)
(-4.80679e-17 1.60992e-15 -0 2.25164e-16 -0 -1.77096e-16)
(-3.55054e-16 9.67605e-16 -0 3.19374e-16 -0 3.56799e-17)
(-1.00999e-16 9.35149e-16 -0 1.15072e-16 -0 -1.40728e-17)
(1.10101e-17 7.0271e-16 -0 -1.42106e-17 -0 3.20045e-18)
(1.53269e-16 3.93769e-16 -0 -1.38386e-16 -0 -1.48823e-17)
(1.78665e-16 3.6595e-17 -0 -1.60909e-16 -0 -1.77563e-17)
(9.06529e-17 6.12514e-17 -0 -9.05549e-17 -0 -9.798e-20)
(1.16108e-16 3.34998e-16 -0 -1.18225e-16 -0 2.11685e-18)
(1.8702e-16 -4.26512e-16 -0 -1.82591e-16 -0 -4.4287e-18)
(8.89106e-11 4.88883e-10 -0 -6.29332e-11 -0 -2.59774e-11)
(-9.21504e-11 -5.92941e-10 -0 5.07081e-11 -0 4.14423e-11)
(1.81631e-11 1.43065e-10 -0 -1.01776e-11 -0 -7.98548e-12)
(-8.1834e-12 -3.37476e-11 -0 4.35684e-12 -0 3.82656e-12)
(1.52436e-12 8.15725e-12 -0 -8.26678e-13 -0 -6.97679e-13)
(-5.96765e-13 -1.94065e-12 -0 3.13632e-13 -0 2.83133e-13)
(1.50337e-13 4.68584e-13 -0 -7.85611e-14 -0 -7.17759e-14)
(-4.24494e-14 -1.10097e-13 -0 2.26063e-14 -0 1.98431e-14)
(1.20492e-14 2.90287e-14 -0 -5.6925e-15 -0 -6.35673e-15)
(-4.30238e-15 -4.76289e-15 -0 2.72718e-15 -0 1.5752e-15)
(1.37033e-16 3.02489e-15 -0 3.70948e-16 -0 -5.0798e-16)
(-9.46438e-16 7.96868e-16 -0 8.35066e-16 -0 1.11372e-16)
(-3.98754e-16 1.0807e-15 -0 4.57189e-16 -0 -5.84353e-17)
(-3.08171e-16 8.16194e-16 -0 3.04298e-16 -0 3.87304e-18)
(-8.98821e-17 6.49032e-16 -0 9.44961e-17 -0 -4.61401e-18)
(9.85839e-17 3.5779e-16 -0 -7.46262e-17 -0 -2.39576e-17)
(1.50488e-16 5.25676e-17 -0 -1.23986e-16 -0 -2.6502e-17)
(2.96323e-17 6.64015e-17 -0 -4.19328e-17 -0 1.23005e-17)
(9.14105e-17 3.01948e-16 -0 -9.88333e-17 -0 7.42273e-18)
(2.15955e-16 -3.49237e-16 -0 -2.07967e-16 -0 -7.98825e-18)
(-7.21005e-11 -4.97896e-10 -0 5.10477e-11 -0 2.10528e-11)
(7.47716e-11 6.03251e-10 -0 -4.11194e-11 -0 -3.36521e-11)
(-1.47635e-11 -1.45614e-10 -0 8.2568e-12 -0 6.50666e-12)
(6.6535e-12 3.43531e-11 -0 -3.5439e-12 -0 -3.1096e-12)
(-1.24414e-12 -8.29545e-12 -0 6.72772e-13 -0 5.71366e-13)
(4.85664e-13 1.98457e-12 -0 -2.54996e-13 -0 -2.30668e-13)
(-1.25057e-13 -4.70253e-13 -0 6.62695e-14 -0 5.87872e-14)
(3.23842e-14 1.1759e-13 -0 -1.60733e-14 -0 -1.63109e-14)
(-1.22682e-14 -2.5259e-14 -0 7.1667e-15 -0 5.10149e-15)
(1.28893e-15 8.303e-15 -0 5.601e-17 -0 -1.34494e-15)
(-2.01141e-15 -3.04178e-16 -0 1.63287e-15 -0 3.78539e-16)
(-7.04203e-16 1.41285e-15 -0 8.22545e-16 -0 -1.18342e-16)
(-7.29848e-16 7.38677e-16 -0 7.05105e-16 -0 2.47426e-17)
(-3.97892e-16 7.14644e-16 -0 4.0143e-16 -0 -3.53825e-18)
(-1.80177e-16 5.15693e-16 -0 1.70078e-16 -0 1.0099e-17)
(4.13873e-17 2.83047e-16 -0 -3.30815e-17 -0 -8.30578e-18)
(9.91131e-17 1.66672e-17 -0 -9.03096e-17 -0 -8.80351e-18)
(1.24634e-17 4.49322e-17 -0 -2.2319e-17 -0 9.85561e-18)
(9.56117e-17 2.67566e-16 -0 -9.74233e-17 -0 1.81153e-18)
(2.28555e-16 -2.69792e-16 -0 -2.21207e-16 -0 -7.34848e-18)
(5.35376e-11 5.03724e-10 -0 -3.80929e-11 -0 -1.54447e-11)
(-5.53145e-11 -6.11832e-10 -0 3.04275e-11 -0 2.4887e-11)
(1.08523e-11 1.47663e-10 -0 -6.07483e-12 -0 -4.77747e-12)
(-4.89048e-12 -3.4816e-11 -0 2.5916e-12 -0 2.29889e-12)
(9.0633e-13 8.42901e-12 -0 -4.86388e-13 -0 -4.19943e-13)
(-3.56484e-13 -2.00182e-12 -0 1.86695e-13 -0 1.69789e-13)
(8.68375e-14 4.85308e-13 -0 -4.33948e-14 -0 -4.34427e-14)
(-2.71071e-14 -1.13632e-13 -0 1.52391e-14 -0 1.1868e-14)
(5.28789e-15 2.98486e-14 -0 -1.49971e-15 -0 -3.78818e-15)
(-3.92521e-15 -5.31689e-15 -0 2.95466e-15 -0 9.7055e-16)
(-9.89168e-16 2.73431e-15 -0 1.27778e-15 -0 -2.88613e-16)
(-1.35447e-15 4.44331e-16 -0 1.27425e-15 -0 8.02253e-17)
(-8.05462e-16 7.77178e-16 -0 8.33423e-16 -0 -2.79613e-17)
(-5.63959e-16 5.33027e-16 -0 5.514e-16 -0 1.25591e-17)
(-2.68212e-16 4.22768e-16 -0 2.61389e-16 -0 6.82293e-18)
(-1.65247e-17 2.34213e-16 -0 3.21745e-17 -0 -1.56498e-17)
(7.14789e-17 5.48386e-17 -0 -4.51448e-17 -0 -2.63341e-17)
(-7.83633e-18 6.26488e-17 -0 4.33307e-18 -0 3.50326e-18)
(1.04778e-16 2.14346e-16 -0 -1.0846e-16 -0 3.68212e-18)
(2.45173e-16 -1.93624e-16 -0 -2.37968e-16 -0 -7.20498e-18)
(-3.77895e-11 -5.09593e-10 -0 2.71751e-11 -0 1.06145e-11)
(3.95655e-11 6.17757e-10 -0 -2.25995e-11 -0 -1.6966e-11)
(-7.91104e-12 -1.48972e-10 -0 4.64425e-12 -0 3.26679e-12)
(3.49948e-12 3.51058e-11 -0 -1.94818e-12 -0 -1.5513e-12)
(-6.78092e-13 -8.45196e-12 -0 3.98636e-13 -0 2.79456e-13)
(2.46193e-13 2.02104e-12 -0 -1.34177e-13 -0 -1.12015e-13)
(-7.00396e-14 -4.76302e-13 -0 4.17518e-14 -0 2.82878e-14)
(1.33372e-14 1.18058e-13 -0 -5.70385e-15 -0 -7.63332e-15)
(-8.56491e-15 -2.60223e-14 -0 6.1981e-15 -0 2.36681e-15)
(-1.11362e-15 7.69945e-15 -0 1.7551e-15 -0 -6.41485e-16)
(-2.3116e-15 -7.80475e-16 -0 2.17154e-15 -0 1.40058e-16)
(-1.32114e-15 1.01944e-15 -0 1.41036e-15 -0 -8.92196e-17)
(-1.05875e-15 4.30217e-16 -0 1.08268e-15 -0 -2.39206e-17)
(-6.74914e-16 4.62107e-16 -0 6.99201e-16 -0 -2.42867e-17)
(-3.6168e-16 3.4594e-16 -0 3.79735e-16 -0 -1.80547e-17)
(-7.37486e-17 2.4102e-16 -0 1.17653e-16 -0 -4.39044e-17)
(2.74538e-18 9.35781e-17 -0 3.3064e-17 -0 -3.58094e-17)
(-8.70572e-17 5.83047e-17 -0 7.95975e-17 -0 7.45975e-18)
(6.65185e-17 1.5172e-16 -0 -6.7457e-17 -0 9.38521e-19)
(2.72343e-16 -1.12332e-16 -0 -2.67904e-16 -0 -4.43918e-18)
(1.7044e-11 4.99357e-10 -0 -1.21979e-11 -0 -4.84614e-12)
(-1.80419e-11 -6.03241e-10 -0 1.07014e-11 -0 7.34047e-12)
(4.12686e-12 1.45995e-10 -0 -2.46477e-12 -0 -1.66209e-12)
(-1.88715e-12 -3.45248e-11 -0 1.10501e-12 -0 7.82135e-13)
(4.10891e-13 8.335e-12 -0 -2.40981e-13 -0 -1.6991e-13)
(-1.66448e-13 -2.00648e-12 -0 1.00996e-13 -0 6.54517e-14)
(3.6487e-14 4.69411e-13 -0 -1.88496e-14 -0 -1.76374e-14)
(-1.74405e-14 -1.21738e-13 -0 1.22085e-14 -0 5.23202e-15)
(3.39651e-16 2.32902e-14 -0 1.24653e-15 -0 -1.58618e-15)
(-3.7474e-15 -9.70725e-15 -0 3.29139e-15 -0 4.5601e-16)
(-1.67087e-15 -3.38443e-16 -0 1.79478e-15 -0 -1.23909e-16)
(-1.55736e-15 -1.55908e-15 -0 1.51089e-15 -0 4.64749e-17)
(-1.01753e-15 -4.92205e-16 -0 1.02008e-15 -0 -2.55304e-18)
(-6.95776e-16 -2.06453e-16 -0 6.71445e-16 -0 2.43305e-17)
(-3.54923e-16 6.98343e-17 -0 3.39731e-16 -0 1.51919e-17)
(-7.57398e-17 1.1567e-16 -0 8.41063e-17 -0 -8.36654e-18)
(-4.38521e-17 2.62315e-17 -0 4.04555e-17 -0 3.3966e-18)
(-2.15576e-16 7.82333e-17 -0 1.87034e-16 -0 2.85424e-17)
(-3.44993e-17 2.79867e-16 -0 4.27493e-17 -0 -8.25003e-18)
(3.03501e-16 5.11827e-17 -0 -2.99011e-16 -0 -4.49054e-18)
)
;

boundaryField
{
    movingWall
    {
        type            calculated;
        value           nonuniform List<symmTensor> 
20
(
(1.06125e-09 2.64341e-10 -0 -2.10895e-09 -0 1.04769e-09)
(-2.64234e-10 -3.6406e-10 -0 5.12741e-10 -0 -2.48508e-10)
(6.25534e-11 8.60821e-11 -0 -1.2152e-10 -0 5.89669e-11)
(-1.56169e-11 -2.04755e-11 -0 2.958e-11 -0 -1.39631e-11)
(3.70631e-12 4.80663e-12 -0 -7.05277e-12 -0 3.34647e-12)
(-9.29444e-13 -1.15932e-12 -0 1.71521e-12 -0 -7.85769e-13)
(2.21694e-13 2.57907e-13 -0 -4.09855e-13 -0 1.88161e-13)
(-5.8497e-14 -7.1884e-14 -0 1.02947e-13 -0 -4.445e-14)
(1.17329e-14 8.97761e-15 -0 -2.22726e-14 -0 1.05397e-14)
(-5.06956e-15 -7.60437e-15 -0 7.53487e-15 -0 -2.46531e-15)
(-3.30647e-16 -1.90034e-15 -0 -2.9714e-16 -0 6.27787e-16)
(-1.09351e-15 -1.87088e-15 -0 1.19334e-15 -0 -9.98362e-17)
(-5.59564e-16 -8.82818e-16 -0 4.90291e-16 -0 6.9273e-17)
(-4.13402e-16 -4.08706e-16 -0 3.80655e-16 -0 3.27469e-17)
(-1.9412e-16 -6.59793e-17 -0 1.58931e-16 -0 3.51891e-17)
(-2.84197e-17 2.85337e-17 -0 1.50977e-17 -0 1.3322e-17)
(-1.78316e-17 -3.83575e-17 -0 6.38984e-18 -0 1.14418e-17)
(-1.39761e-16 6.15197e-17 -0 1.28275e-16 -0 1.14856e-17)
(-3.45835e-17 3.15696e-16 -0 5.2904e-17 -0 -1.83205e-17)
(1.89991e-16 9.01662e-17 -0 -1.89163e-16 -0 -8.28102e-19)
)
;
    }
    fixedWalls
    {
        type            calculated;
        value           nonuniform List<symmTensor> 
60
(
(-4.6155e-11 -8.82842e-10 -0 2.82281e-11 -0 1.79269e-11)
(1.5242e-10 8.85522e-10 -0 -9.17292e-11 -0 -6.0691e-11)
(-2.54308e-10 -9.27839e-10 -0 1.52128e-10 -0 1.0218e-10)
(3.52573e-10 9.89085e-10 -0 -2.06368e-10 -0 -1.46205e-10)
(-4.31786e-10 -1.0597e-09 -0 2.44008e-10 -0 1.87778e-10)
(4.77745e-10 1.12086e-09 -0 -2.63328e-10 -0 -2.14416e-10)
(-5.00941e-10 -1.17687e-09 -0 2.73726e-10 -0 2.27215e-10)
(5.02196e-10 1.22835e-09 -0 -2.73641e-10 -0 -2.28555e-10)
(-4.95283e-10 -1.27689e-09 -0 2.69617e-10 -0 2.25666e-10)
(4.74513e-10 1.32349e-09 -0 -2.58453e-10 -0 -2.1606e-10)
(-4.50717e-10 -1.36726e-09 -0 2.45555e-10 -0 2.05161e-10)
(4.16399e-10 1.40884e-09 -0 -2.27101e-10 -0 -1.89297e-10)
(-3.81107e-10 -1.44658e-09 -0 2.07931e-10 -0 1.73176e-10)
(3.37824e-10 1.48144e-09 -0 -1.84529e-10 -0 -1.53295e-10)
(-2.9446e-10 -1.51138e-09 -0 1.60896e-10 -0 1.33564e-10)
(2.46306e-10 1.53763e-09 -0 -1.34727e-10 -0 -1.1158e-10)
(-1.99238e-10 -1.5591e-09 -0 1.08984e-10 -0 9.02544e-11)
(1.46866e-10 1.57524e-09 -0 -8.04797e-11 -0 -6.63863e-11)
(-1.03271e-10 -1.58709e-09 -0 5.67715e-11 -0 4.64999e-11)
(4.82949e-11 1.58827e-09 -0 -2.64248e-11 -0 -2.18701e-11)
(-1.6771e-16 -6.70337e-17 -0 1.86206e-16 -0 -1.84958e-17)
(-1.58958e-16 -3.08217e-16 -0 1.77584e-16 -0 -1.86259e-17)
(-1.50406e-16 -4.98756e-16 -0 1.65808e-16 -0 -1.54025e-17)
(-1.29394e-16 -6.73077e-16 -0 1.45101e-16 -0 -1.57071e-17)
(-1.10251e-16 -8.23625e-16 -0 1.22803e-16 -0 -1.25518e-17)
(-8.06722e-17 -9.44329e-16 -0 9.38429e-17 -0 -1.31707e-17)
(-6.11598e-17 -1.03738e-15 -0 6.9029e-17 -0 -7.86914e-18)
(-2.85379e-17 -1.09921e-15 -0 3.75358e-17 -0 -8.99794e-18)
(-8.29995e-18 -1.12964e-15 -0 1.30472e-17 -0 -4.74724e-18)
(1.76839e-17 -1.13317e-15 -0 -1.31632e-17 -0 -4.52061e-18)
(3.33941e-17 -1.11208e-15 -0 -3.30374e-17 -0 -3.56694e-19)
(5.7928e-17 -1.06754e-15 -0 -5.6348e-17 -0 -1.57997e-18)
(7.12764e-17 -1.002e-15 -0 -7.32749e-17 -0 1.99851e-18)
(9.3612e-17 -9.17535e-16 -0 -9.39652e-17 -0 3.53216e-19)
(1.0957e-16 -8.13635e-16 -0 -1.10782e-16 -0 1.21231e-18)
(1.2765e-16 -6.9219e-16 -0 -1.26515e-16 -0 -1.13556e-18)
(1.35744e-16 -5.59353e-16 -0 -1.34708e-16 -0 -1.03582e-18)
(1.40286e-16 -4.24304e-16 -0 -1.42015e-16 -0 1.72976e-18)
(1.61699e-16 -2.79723e-16 -0 -1.62638e-16 -0 9.39094e-19)
(2.00564e-16 -4.7818e-17 -0 -1.91519e-16 -0 -9.04567e-18)
(5.92101e-10 -2.06117e-10 -0 -1.19752e-09 -0 6.0542e-10)
(-1.26899e-10 2.18624e-10 -0 2.68614e-10 -0 -1.41715e-10)
(3.07175e-11 -5.09293e-11 -0 -6.3944e-11 -0 3.32265e-11)
(-6.62648e-12 1.1889e-11 -0 1.43911e-11 -0 -7.76463e-12)
(1.59676e-12 -2.75139e-12 -0 -3.36514e-12 -0 1.76838e-12)
(-3.55297e-13 6.49342e-13 -0 7.74972e-13 -0 -4.19675e-13)
(7.76314e-14 -1.43844e-13 -0 -1.72867e-13 -0 9.52351e-14)
(-1.97902e-14 3.77968e-14 -0 4.18274e-14 -0 -2.20372e-14)
(3.19068e-15 -5.53192e-15 -0 -8.2798e-15 -0 5.08912e-15)
(-1.29897e-15 3.76598e-15 -0 2.45699e-15 -0 -1.15802e-15)
(1.09115e-18 1.29636e-15 -0 -2.61307e-16 -0 2.60215e-16)
(-1.43002e-16 1.7143e-15 -0 2.04147e-16 -0 -6.11448e-17)
(-8.58913e-17 1.53662e-15 -0 7.04097e-17 -0 1.54816e-17)
(-1.54457e-16 1.46187e-15 -0 1.53331e-16 -0 1.12587e-18)
(-2.35794e-16 1.25546e-15 -0 2.30354e-16 -0 5.44067e-18)
(-2.86682e-16 9.5952e-16 -0 2.81713e-16 -0 4.96868e-18)
(-2.40936e-16 6.44426e-16 -0 2.4118e-16 -0 -2.43441e-19)
(-1.55625e-16 4.63611e-16 -0 1.64882e-16 -0 -9.25758e-18)
(-1.83353e-16 3.68224e-16 -0 1.66129e-16 -0 1.72241e-17)
(-2.1527e-16 3.01552e-17 -0 2.1099e-16 -0 4.28068e-18)
)
;
    }
    frontAndBack
    {
        type            empty;
    }
}


// ************************************************************************* //
