/*--------------------------------*- C++ -*----------------------------------*\
| =========                 |                                                 |
| \\      /  F ield         | OpenFOAM: The Open Source CFD Toolbox           |
|  \\    /   O peration     | Version:  2506                                  |
|   \\  /    A nd           | Website:  www.openfoam.com                      |
|    \\/     M anipulation  |                                                 |
\*---------------------------------------------------------------------------*/
FoamFile
{
    version     2.0;
    format      ascii;
    arch        "LSB;label=32;scalar=64";
    class       volSymmTensorField;
    location    "3.5";
    object      turbulenceProperties:R;
}
// * * * * * * * * * * * * * * * * * * * * * * * * * * * * * * * * * * * * * //

dimensions      [0 2 -2 0 0 0 0];

internalField   nonuniform List<symmTensor> 
400
(
(2.6833e-05 -5.50255e-11 -0 2.6833e-05 -0 2.6833e-05)
(2.68325e-05 7.41702e-11 -0 2.68325e-05 -0 2.68325e-05)
(2.68321e-05 -1.65908e-11 -0 2.68321e-05 -0 2.68321e-05)
(2.68318e-05 3.95942e-12 -0 2.68318e-05 -0 2.68318e-05)
(2.68315e-05 -8.83512e-13 -0 2.68315e-05 -0 2.68315e-05)
(2.68312e-05 2.05333e-13 -0 2.68312e-05 -0 2.68312e-05)
(2.68309e-05 -4.61798e-14 -0 2.68309e-05 -0 2.68309e-05)
(2.68307e-05 1.0885e-14 -0 2.68307e-05 -0 2.68307e-05)
(2.68305e-05 -2.02835e-15 -0 2.68305e-05 -0 2.68305e-05)
(2.68303e-05 8.08489e-16 -0 2.68303e-05 -0 2.68303e-05)
(2.68302e-05 1.5017e-16 -0 2.68302e-05 -0 2.68302e-05)
(2.68301e-05 2.85508e-16 -0 2.68301e-05 -0 2.68301e-05)
(2.68299e-05 2.5519e-16 -0 2.68299e-05 -0 2.68299e-05)
(2.68299e-05 2.50541e-16 -0 2.68299e-05 -0 2.68299e-05)
(2.68298e-05 2.17061e-16 -0 2.68298e-05 -0 2.68298e-05)
(2.68297e-05 1.6479e-16 -0 2.68297e-05 -0 2.68297e-05)
(2.68297e-05 1.10878e-16 -0 2.68297e-05 -0 2.68297e-05)
(2.68297e-05 7.91835e-17 -0 2.68297e-05 -0 2.68297e-05)
(2.68296e-05 6.37069e-17 -0 2.68296e-05 -0 2.68296e-05)
(2.68296e-05 -2.87805e-18 -0 2.68296e-05 -0 2.68296e-05)
(3.63148e-05 5.81586e-11 -0 3.63148e-05 -0 3.63148e-05)
(3.63143e-05 -9.0482e-11 -0 3.63143e-05 -0 3.63143e-05)
(3.62996e-05 1.9833e-11 -0 3.62995e-05 -0 3.62995e-05)
(3.62936e-05 -4.7431e-12 -0 3.62936e-05 -0 3.62936e-05)
(3.62828e-05 1.03913e-12 -0 3.62828e-05 -0 3.62828e-05)
(3.6278e-05 -2.37491e-13 -0 3.6278e-05 -0 3.6278e-05)
(3.62684e-05 5.3248e-14 -0 3.62684e-05 -0 3.62684e-05)
(3.62646e-05 -1.19958e-14 -0 3.62646e-05 -0 3.62646e-05)
(3.62563e-05 2.25491e-15 -0 3.62563e-05 -0 3.62563e-05)
(3.62532e-05 -7.7836e-16 -0 3.62532e-05 -0 3.62532e-05)
(3.62462e-05 -2.66764e-17 -0 3.62462e-05 -0 3.62462e-05)
(3.62439e-05 -1.05857e-16 -0 3.62439e-05 -0 3.62439e-05)
(3.62384e-05 -3.73789e-17 -0 3.62384e-05 -0 3.62384e-05)
(3.62367e-05 -1.54533e-17 -0 3.62367e-05 -0 3.62367e-05)
(3.62327e-05 -3.97095e-18 -0 3.62327e-05 -0 3.62327e-05)
(3.62316e-05 -1.33867e-17 -0 3.62316e-05 -0 3.62316e-05)
(3.62292e-05 -3.19876e-17 -0 3.62292e-05 -0 3.62292e-05)
(3.62287e-05 -2.1133e-17 -0 3.62287e-05 -0 3.62287e-05)
(3.62279e-05 4.45264e-18 -0 3.62279e-05 -0 3.62279e-05)
(3.62276e-05 -5.66681e-17 -0 3.62276e-05 -0 3.62276e-05)
(4.8636e-05 -7.13466e-11 -0 4.86361e-05 -0 4.86361e-05)
(4.86348e-05 1.10457e-10 -0 4.86348e-05 -0 4.86348e-05)
(4.86076e-05 -2.42527e-11 -0 4.86076e-05 -0 4.86076e-05)
(4.8597e-05 5.82082e-12 -0 4.8597e-05 -0 4.8597e-05)
(4.8578e-05 -1.27865e-12 -0 4.8578e-05 -0 4.8578e-05)
(4.85686e-05 2.91715e-13 -0 4.85686e-05 -0 4.85686e-05)
(4.85526e-05 -6.83598e-14 -0 4.85526e-05 -0 4.85526e-05)
(4.8544e-05 1.34504e-14 -0 4.8544e-05 -0 4.8544e-05)
(4.85309e-05 -3.92536e-15 -0 4.85309e-05 -0 4.85309e-05)
(4.85236e-05 3.37332e-16 -0 4.85236e-05 -0 4.85236e-05)
(4.85129e-05 -3.68277e-16 -0 4.85129e-05 -0 4.85129e-05)
(4.85072e-05 -8.88647e-17 -0 4.85072e-05 -0 4.85072e-05)
(4.84987e-05 -6.13808e-17 -0 4.84987e-05 -0 4.84987e-05)
(4.84946e-05 -1.10262e-17 -0 4.84946e-05 -0 4.84946e-05)
(4.84886e-05 1.09885e-19 -0 4.84886e-05 -0 4.84886e-05)
(4.84857e-05 -1.92782e-17 -0 4.84857e-05 -0 4.84857e-05)
(4.84822e-05 -5.22068e-17 -0 4.84822e-05 -0 4.84822e-05)
(4.84807e-05 -3.61665e-17 -0 4.84807e-05 -0 4.84807e-05)
(4.84795e-05 7.59721e-18 -0 4.84795e-05 -0 4.84795e-05)
(4.8479e-05 -1.05077e-16 -0 4.8479e-05 -0 4.8479e-05)
(5.82401e-05 8.5221e-11 -0 5.824e-05 -0 5.824e-05)
(5.82383e-05 -1.29246e-10 -0 5.82383e-05 -0 5.82383e-05)
(5.81983e-05 2.8511e-11 -0 5.81983e-05 -0 5.81983e-05)
(5.81833e-05 -6.85925e-12 -0 5.81833e-05 -0 5.81833e-05)
(5.81553e-05 1.48968e-12 -0 5.81553e-05 -0 5.81553e-05)
(5.8142e-05 -3.52108e-13 -0 5.8142e-05 -0 5.8142e-05)
(5.81182e-05 7.60832e-14 -0 5.81182e-05 -0 5.81182e-05)
(5.81062e-05 -1.83696e-14 -0 5.81062e-05 -0 5.81062e-05)
(5.80868e-05 3.15292e-15 -0 5.80868e-05 -0 5.80868e-05)
(5.80763e-05 -1.28466e-15 -0 5.80763e-05 -0 5.80763e-05)
(5.80606e-05 -7.6198e-17 -0 5.80606e-05 -0 5.80606e-05)
(5.80523e-05 -1.7403e-16 -0 5.80523e-05 -0 5.80523e-05)
(5.80397e-05 -4.51486e-17 -0 5.80397e-05 -0 5.80397e-05)
(5.80339e-05 -7.78564e-19 -0 5.80339e-05 -0 5.80339e-05)
(5.80246e-05 1.35503e-17 -0 5.80246e-05 -0 5.80246e-05)
(5.80209e-05 -1.88821e-17 -0 5.80209e-05 -0 5.80209e-05)
(5.80155e-05 -7.41396e-17 -0 5.80155e-05 -0 5.80155e-05)
(5.80135e-05 -5.12422e-17 -0 5.80135e-05 -0 5.80135e-05)
(5.80117e-05 1.60674e-17 -0 5.80117e-05 -0 5.80117e-05)
(5.8011e-05 -1.5396e-16 -0 5.8011e-05 -0 5.8011e-05)
(6.42679e-05 -1.00258e-10 -0 6.4268e-05 -0 6.4268e-05)
(6.42654e-05 1.45361e-10 -0 6.42653e-05 -0 6.42653e-05)
(6.42173e-05 -3.28014e-11 -0 6.42173e-05 -0 6.42173e-05)
(6.41974e-05 7.78877e-12 -0 6.41974e-05 -0 6.41974e-05)
(6.41636e-05 -1.74396e-12 -0 6.41636e-05 -0 6.41636e-05)
(6.41467e-05 4.01426e-13 -0 6.41467e-05 -0 6.41467e-05)
(6.41176e-05 -9.31856e-14 -0 6.41176e-05 -0 6.41176e-05)
(6.41026e-05 1.91522e-14 -0 6.41026e-05 -0 6.41026e-05)
(6.40784e-05 -5.32756e-15 -0 6.40784e-05 -0 6.40784e-05)
(6.40659e-05 5.93197e-16 -0 6.40659e-05 -0 6.40659e-05)
(6.40461e-05 -4.43643e-16 -0 6.40461e-05 -0 6.40461e-05)
(6.40363e-05 -6.0476e-17 -0 6.40363e-05 -0 6.40363e-05)
(6.40206e-05 -3.31405e-17 -0 6.40206e-05 -0 6.40206e-05)
(6.40135e-05 3.21531e-17 -0 6.40135e-05 -0 6.40135e-05)
(6.40026e-05 3.63404e-17 -0 6.40026e-05 -0 6.40026e-05)
(6.39975e-05 -1.27691e-17 -0 6.39975e-05 -0 6.39975e-05)
(6.39912e-05 -8.4932e-17 -0 6.39912e-05 -0 6.39912e-05)
(6.39884e-05 -5.88679e-17 -0 6.39884e-05 -0 6.39884e-05)
(6.39863e-05 2.47021e-17 -0 6.39863e-05 -0 6.39863e-05)
(6.39854e-05 -1.95551e-16 -0 6.39854e-05 -0 6.39854e-05)
(6.77004e-05 1.1378e-10 -0 6.77003e-05 -0 6.77003e-05)
(6.76973e-05 -1.57702e-10 -0 6.76974e-05 -0 6.76974e-05)
(6.76435e-05 3.63605e-11 -0 6.76435e-05 -0 6.76435e-05)
(6.76213e-05 -8.5933e-12 -0 6.76214e-05 -0 6.76214e-05)
(6.75846e-05 1.97018e-12 -0 6.75846e-05 -0 6.75846e-05)
(6.75649e-05 -4.59875e-13 -0 6.75649e-05 -0 6.75649e-05)
(6.75322e-05 1.04744e-13 -0 6.75322e-05 -0 6.75322e-05)
(6.75163e-05 -2.45194e-14 -0 6.75163e-05 -0 6.75163e-05)
(6.74886e-05 5.02909e-15 -0 6.74886e-05 -0 6.74886e-05)
(6.7475e-05 -1.4837e-15 -0 6.7475e-05 -0 6.7475e-05)
(6.74528e-05 1.37729e-16 -0 6.74528e-05 -0 6.74528e-05)
(6.74417e-05 -1.00056e-16 -0 6.74417e-05 -0 6.74417e-05)
(6.74242e-05 4.05343e-17 -0 6.74242e-05 -0 6.74242e-05)
(6.74163e-05 7.0842e-17 -0 6.74163e-05 -0 6.74163e-05)
(6.74037e-05 6.98104e-17 -0 6.74037e-05 -0 6.74037e-05)
(6.73984e-05 3.90038e-18 -0 6.73984e-05 -0 6.73984e-05)
(6.73911e-05 -9.0435e-17 -0 6.73911e-05 -0 6.73911e-05)
(6.73881e-05 -6.19923e-17 -0 6.73881e-05 -0 6.73881e-05)
(6.73857e-05 3.69795e-17 -0 6.73857e-05 -0 6.73857e-05)
(6.73848e-05 -2.26179e-16 -0 6.73848e-05 -0 6.73848e-05)
(6.96422e-05 -1.25175e-10 -0 6.96424e-05 -0 6.96423e-05)
(6.9639e-05 1.67943e-10 -0 6.96389e-05 -0 6.96389e-05)
(6.95823e-05 -3.92682e-11 -0 6.95823e-05 -0 6.95823e-05)
(6.95586e-05 9.27897e-12 -0 6.95586e-05 -0 6.95586e-05)
(6.95185e-05 -2.16521e-12 -0 6.95185e-05 -0 6.95185e-05)
(6.94984e-05 5.08603e-13 -0 6.94984e-05 -0 6.94984e-05)
(6.94635e-05 -1.1902e-13 -0 6.94635e-05 -0 6.94635e-05)
(6.9447e-05 2.73054e-14 -0 6.9447e-05 -0 6.9447e-05)
(6.94171e-05 -6.60848e-15 -0 6.94171e-05 -0 6.94171e-05)
(6.94032e-05 1.39065e-15 -0 6.94032e-05 -0 6.94032e-05)
(6.93789e-05 -3.45922e-16 -0 6.93789e-05 -0 6.93789e-05)
(6.93677e-05 1.24151e-16 -0 6.93677e-05 -0 6.93677e-05)
(6.93488e-05 7.72818e-17 -0 6.93488e-05 -0 6.93488e-05)
(6.93406e-05 1.29389e-16 -0 6.93406e-05 -0 6.93406e-05)
(6.93269e-05 1.05642e-16 -0 6.93269e-05 -0 6.93269e-05)
(6.93215e-05 2.32599e-17 -0 6.93215e-05 -0 6.93215e-05)
(6.93137e-05 -8.66462e-17 -0 6.93137e-05 -0 6.93137e-05)
(6.93106e-05 -5.8244e-17 -0 6.93106e-05 -0 6.93106e-05)
(6.9308e-05 4.96287e-17 -0 6.9308e-05 -0 6.9308e-05)
(6.9307e-05 -2.47806e-16 -0 6.9307e-05 -0 6.9307e-05)
(7.08259e-05 1.34284e-10 -0 7.08258e-05 -0 7.08258e-05)
(7.08225e-05 -1.76712e-10 -0 7.08227e-05 -0 7.08226e-05)
(7.07623e-05 4.1681e-11 -0 7.07623e-05 -0 7.07623e-05)
(7.07389e-05 -9.84114e-12 -0 7.07389e-05 -0 7.07389e-05)
(7.06969e-05 2.32215e-12 -0 7.06969e-05 -0 7.06969e-05)
(7.06758e-05 -5.47952e-13 -0 7.06758e-05 -0 7.06758e-05)
(7.06408e-05 1.29171e-13 -0 7.06408e-05 -0 7.06408e-05)
(7.06218e-05 -3.04239e-14 -0 7.06218e-05 -0 7.06218e-05)
(7.05929e-05 7.19799e-15 -0 7.05929e-05 -0 7.05929e-05)
(7.05767e-05 -1.60446e-15 -0 7.05767e-05 -0 7.05767e-05)
(7.05531e-05 5.12592e-16 -0 7.05531e-05 -0 7.05531e-05)
(7.05401e-05 4.71551e-17 -0 7.05401e-05 -0 7.05401e-05)
(7.05221e-05 1.86424e-16 -0 7.05221e-05 -0 7.05221e-05)
(7.05123e-05 1.74611e-16 -0 7.05123e-05 -0 7.05123e-05)
(7.04993e-05 1.47577e-16 -0 7.04993e-05 -0 7.04993e-05)
(7.04929e-05 4.75916e-17 -0 7.04929e-05 -0 7.04929e-05)
(7.04851e-05 -7.80943e-17 -0 7.04851e-05 -0 7.04851e-05)
(7.04817e-05 -5.19755e-17 -0 7.04817e-05 -0 7.04817e-05)
(7.0479e-05 6.47399e-17 -0 7.0479e-05 -0 7.0479e-05)
(7.0478e-05 -2.59623e-16 -0 7.0478e-05 -0 7.0478e-05)
(7.16559e-05 -1.42167e-10 -0 7.1656e-05 -0 7.1656e-05)
(7.16526e-05 1.8473e-10 -0 7.16525e-05 -0 7.16525e-05)
(7.15915e-05 -4.38069e-11 -0 7.15915e-05 -0 7.15915e-05)
(7.15668e-05 1.03441e-11 -0 7.15668e-05 -0 7.15668e-05)
(7.15245e-05 -2.4542e-12 -0 7.15245e-05 -0 7.15245e-05)
(7.15027e-05 5.82405e-13 -0 7.15027e-05 -0 7.15027e-05)
(7.14663e-05 -1.37251e-13 -0 7.14663e-05 -0 7.14663e-05)
(7.1448e-05 3.30433e-14 -0 7.1448e-05 -0 7.1448e-05)
(7.14165e-05 -7.50854e-15 -0 7.14165e-05 -0 7.14165e-05)
(7.14018e-05 2.07155e-15 -0 7.14018e-05 -0 7.14018e-05)
(7.13758e-05 -2.02931e-16 -0 7.13758e-05 -0 7.13758e-05)
(7.13642e-05 3.30832e-16 -0 7.13642e-05 -0 7.13642e-05)
(7.1344e-05 2.07394e-16 -0 7.1344e-05 -0 7.1344e-05)
(7.13354e-05 2.37005e-16 -0 7.13354e-05 -0 7.13354e-05)
(7.13209e-05 1.82412e-16 -0 7.13209e-05 -0 7.13209e-05)
(7.13151e-05 7.19669e-17 -0 7.13151e-05 -0 7.13151e-05)
(7.13069e-05 -6.53364e-17 -0 7.13069e-05 -0 7.13069e-05)
(7.13036e-05 -4.10653e-17 -0 7.13036e-05 -0 7.13036e-05)
(7.13008e-05 7.9321e-17 -0 7.13008e-05 -0 7.13008e-05)
(7.12998e-05 -2.62113e-16 -0 7.12998e-05 -0 7.12998e-05)
(7.2341e-05 1.49304e-10 -0 7.23409e-05 -0 7.23409e-05)
(7.23375e-05 -1.92347e-10 -0 7.23376e-05 -0 7.23376e-05)
(7.22751e-05 4.58027e-11 -0 7.22751e-05 -0 7.22751e-05)
(7.22505e-05 -1.08053e-11 -0 7.22505e-05 -0 7.22505e-05)
(7.22069e-05 2.57823e-12 -0 7.22069e-05 -0 7.22069e-05)
(7.21858e-05 -6.10812e-13 -0 7.21858e-05 -0 7.21858e-05)
(7.21465e-05 1.45728e-13 -0 7.21465e-05 -0 7.21465e-05)
(7.21298e-05 -3.43108e-14 -0 7.21298e-05 -0 7.21298e-05)
(7.20961e-05 8.61038e-15 -0 7.20961e-05 -0 7.20961e-05)
(7.20825e-05 -1.61965e-15 -0 7.20825e-05 -0 7.20825e-05)
(7.20548e-05 8.02252e-16 -0 7.20548e-05 -0 7.20548e-05)
(7.20442e-05 1.91406e-16 -0 7.20442e-05 -0 7.20442e-05)
(7.20225e-05 3.17721e-16 -0 7.20225e-05 -0 7.20225e-05)
(7.20146e-05 2.6963e-16 -0 7.20146e-05 -0 7.20146e-05)
(7.19992e-05 2.18682e-16 -0 7.19992e-05 -0 7.19992e-05)
(7.19938e-05 9.50147e-17 -0 7.19938e-05 -0 7.19938e-05)
(7.19846e-05 -4.96497e-17 -0 7.19846e-05 -0 7.19846e-05)
(7.19818e-05 -2.89775e-17 -0 7.19818e-05 -0 7.19818e-05)
(7.19788e-05 9.29643e-17 -0 7.19788e-05 -0 7.19788e-05)
(7.19778e-05 -2.57153e-16 -0 7.19778e-05 -0 7.19778e-05)
(7.29885e-05 -1.55885e-10 -0 7.29886e-05 -0 7.29885e-05)
(7.29853e-05 1.99573e-10 -0 7.29852e-05 -0 7.29852e-05)
(7.2921e-05 -4.76548e-11 -0 7.2921e-05 -0 7.2921e-05)
(7.28963e-05 1.12406e-11 -0 7.28963e-05 -0 7.28963e-05)
(7.28514e-05 -2.68754e-12 -0 7.28514e-05 -0 7.28514e-05)
(7.28295e-05 6.39618e-13 -0 7.28295e-05 -0 7.28295e-05)
(7.27909e-05 -1.51237e-13 -0 7.27909e-05 -0 7.27909e-05)
(7.27722e-05 3.70535e-14 -0 7.27722e-05 -0 7.27722e-05)
(7.27394e-05 -8.16454e-15 -0 7.27394e-05 -0 7.27394e-05)
(7.27242e-05 2.53168e-15 -0 7.27242e-05 -0 7.27242e-05)
(7.26974e-05 -8.80682e-17 -0 7.26974e-05 -0 7.26974e-05)
(7.26854e-05 4.85475e-16 -0 7.26854e-05 -0 7.26854e-05)
(7.26644e-05 3.09069e-16 -0 7.26644e-05 -0 7.26644e-05)
(7.26556e-05 3.18324e-16 -0 7.26556e-05 -0 7.26556e-05)
(7.26404e-05 2.42033e-16 -0 7.26404e-05 -0 7.26404e-05)
(7.26347e-05 1.15606e-16 -0 7.26347e-05 -0 7.26347e-05)
(7.26256e-05 -3.5428e-17 -0 7.26256e-05 -0 7.26256e-05)
(7.26225e-05 -1.62059e-17 -0 7.26225e-05 -0 7.26225e-05)
(7.26194e-05 1.06151e-16 -0 7.26194e-05 -0 7.26194e-05)
(7.26184e-05 -2.46465e-16 -0 7.26184e-05 -0 7.26184e-05)
(7.36581e-05 1.62112e-10 -0 7.3658e-05 -0 7.3658e-05)
(7.36547e-05 -2.0658e-10 -0 7.36548e-05 -0 7.36548e-05)
(7.35883e-05 4.94431e-11 -0 7.35883e-05 -0 7.35883e-05)
(7.35638e-05 -1.16549e-11 -0 7.35638e-05 -0 7.35638e-05)
(7.35191e-05 2.79627e-12 -0 7.35191e-05 -0 7.35191e-05)
(7.34951e-05 -6.63672e-13 -0 7.34951e-05 -0 7.34951e-05)
(7.34577e-05 1.59053e-13 -0 7.34577e-05 -0 7.34577e-05)
(7.34367e-05 -3.74728e-14 -0 7.34367e-05 -0 7.34367e-05)
(7.34055e-05 9.63309e-15 -0 7.34055e-05 -0 7.34055e-05)
(7.33879e-05 -1.6595e-15 -0 7.33879e-05 -0 7.33879e-05)
(7.33619e-05 9.97115e-16 -0 7.33619e-05 -0 7.33619e-05)
(7.33484e-05 2.881e-16 -0 7.33484e-05 -0 7.33484e-05)
(7.33285e-05 4.05041e-16 -0 7.33285e-05 -0 7.33285e-05)
(7.3318e-05 3.30018e-16 -0 7.3318e-05 -0 7.3318e-05)
(7.33041e-05 2.64876e-16 -0 7.33041e-05 -0 7.33041e-05)
(7.32969e-05 1.31228e-16 -0 7.32969e-05 -0 7.32969e-05)
(7.32887e-05 -1.84378e-17 -0 7.32887e-05 -0 7.32887e-05)
(7.32849e-05 -3.79217e-18 -0 7.32849e-05 -0 7.32849e-05)
(7.3282e-05 1.15353e-16 -0 7.3282e-05 -0 7.3282e-05)
(7.32809e-05 -2.2934e-16 -0 7.32809e-05 -0 7.32809e-05)
(7.43875e-05 -1.67832e-10 -0 7.43876e-05 -0 7.43876e-05)
(7.43837e-05 2.13163e-10 -0 7.43836e-05 -0 7.43836e-05)
(7.43183e-05 -5.10995e-11 -0 7.43183e-05 -0 7.43183e-05)
(7.42914e-05 1.20434e-11 -0 7.42914e-05 -0 7.42914e-05)
(7.42457e-05 -2.89137e-12 -0 7.42457e-05 -0 7.42457e-05)
(7.42227e-05 6.89001e-13 -0 7.42227e-05 -0 7.42227e-05)
(7.41822e-05 -1.63184e-13 -0 7.41822e-05 -0 7.41822e-05)
(7.41636e-05 4.02933e-14 -0 7.41636e-05 -0 7.41636e-05)
(7.41284e-05 -8.75221e-15 -0 7.41284e-05 -0 7.41284e-05)
(7.41139e-05 2.85486e-15 -0 7.41139e-05 -0 7.41139e-05)
(7.40851e-05 -2.92761e-17 -0 7.40851e-05 -0 7.40851e-05)
(7.40729e-05 5.78852e-16 -0 7.40729e-05 -0 7.40729e-05)
(7.40511e-05 3.64499e-16 -0 7.40511e-05 -0 7.40511e-05)
(7.40417e-05 3.5978e-16 -0 7.40417e-05 -0 7.40417e-05)
(7.40262e-05 2.72176e-16 -0 7.40262e-05 -0 7.40262e-05)
(7.40198e-05 1.43786e-16 -0 7.40198e-05 -0 7.40198e-05)
(7.40105e-05 -7.11252e-18 -0 7.40105e-05 -0 7.40105e-05)
(7.40074e-05 6.70534e-18 -0 7.40074e-05 -0 7.40074e-05)
(7.40042e-05 1.23717e-16 -0 7.40042e-05 -0 7.40042e-05)
(7.40031e-05 -2.08727e-16 -0 7.40031e-05 -0 7.40031e-05)
(7.52085e-05 1.73294e-10 -0 7.52084e-05 -0 7.52084e-05)
(7.52048e-05 -2.19541e-10 -0 7.52049e-05 -0 7.52049e-05)
(7.51366e-05 5.2698e-11 -0 7.51365e-05 -0 7.51365e-05)
(7.511e-05 -1.24154e-11 -0 7.511e-05 -0 7.511e-05)
(7.5063e-05 2.98744e-12 -0 7.5063e-05 -0 7.5063e-05)
(7.50387e-05 -7.09736e-13 -0 7.50387e-05 -0 7.50387e-05)
(7.49989e-05 1.70476e-13 -0 7.49989e-05 -0 7.49989e-05)
(7.49778e-05 -4.01534e-14 -0 7.49778e-05 -0 7.49778e-05)
(7.49445e-05 1.04521e-14 -0 7.49445e-05 -0 7.49445e-05)
(7.49269e-05 -1.72802e-15 -0 7.49269e-05 -0 7.49269e-05)
(7.48994e-05 1.11643e-15 -0 7.48994e-05 -0 7.48994e-05)
(7.48858e-05 3.29642e-16 -0 7.48858e-05 -0 7.48858e-05)
(7.4864e-05 4.4001e-16 -0 7.4864e-05 -0 7.4864e-05)
(7.48539e-05 3.47205e-16 -0 7.48539e-05 -0 7.48539e-05)
(7.48388e-05 2.77498e-16 -0 7.48388e-05 -0 7.48388e-05)
(7.48318e-05 1.47569e-16 -0 7.48318e-05 -0 7.48318e-05)
(7.4823e-05 8.24696e-18 -0 7.4823e-05 -0 7.4823e-05)
(7.48192e-05 1.68376e-17 -0 7.48192e-05 -0 7.48192e-05)
(7.48162e-05 1.24829e-16 -0 7.48162e-05 -0 7.48162e-05)
(7.4815e-05 -1.84434e-16 -0 7.4815e-05 -0 7.4815e-05)
(7.61501e-05 -1.78134e-10 -0 7.61501e-05 -0 7.61501e-05)
(7.61463e-05 2.25421e-10 -0 7.61462e-05 -0 7.61462e-05)
(7.60766e-05 -5.41448e-11 -0 7.60766e-05 -0 7.60766e-05)
(7.60494e-05 1.27551e-11 -0 7.60494e-05 -0 7.60494e-05)
(7.60012e-05 -3.06845e-12 -0 7.60012e-05 -0 7.60012e-05)
(7.59773e-05 7.31782e-13 -0 7.59773e-05 -0 7.59773e-05)
(7.59349e-05 -1.73312e-13 -0 7.59349e-05 -0 7.59349e-05)
(7.59149e-05 4.302e-14 -0 7.59149e-05 -0 7.59149e-05)
(7.58785e-05 -9.25251e-15 -0 7.58785e-05 -0 7.58785e-05)
(7.58626e-05 3.085e-15 -0 7.58626e-05 -0 7.58626e-05)
(7.58328e-05 -2.39635e-17 -0 7.58328e-05 -0 7.58328e-05)
(7.582e-05 6.08859e-16 -0 7.582e-05 -0 7.582e-05)
(7.57967e-05 3.64846e-16 -0 7.57967e-05 -0 7.57967e-05)
(7.57874e-05 3.51961e-16 -0 7.57874e-05 -0 7.57874e-05)
(7.57706e-05 2.63707e-16 -0 7.57706e-05 -0 7.57706e-05)
(7.57644e-05 1.47492e-16 -0 7.57644e-05 -0 7.57644e-05)
(7.57547e-05 1.36684e-17 -0 7.57547e-05 -0 7.57547e-05)
(7.57512e-05 2.28334e-17 -0 7.57512e-05 -0 7.57512e-05)
(7.5748e-05 1.24706e-16 -0 7.5748e-05 -0 7.5748e-05)
(7.57468e-05 -1.58403e-16 -0 7.57468e-05 -0 7.57468e-05)
(7.72507e-05 1.82671e-10 -0 7.72507e-05 -0 7.72507e-05)
(7.72464e-05 -2.31068e-10 -0 7.72465e-05 -0 7.72465e-05)
(7.7176e-05 5.55298e-11 -0 7.7176e-05 -0 7.7176e-05)
(7.7147e-05 -1.30768e-11 -0 7.7147e-05 -0 7.7147e-05)
(7.70971e-05 3.15047e-12 -0 7.70971e-05 -0 7.70971e-05)
(7.70726e-05 -7.48238e-13 -0 7.70726e-05 -0 7.70726e-05)
(7.70282e-05 1.80083e-13 -0 7.70282e-05 -0 7.70282e-05)
(7.70086e-05 -4.22389e-14 -0 7.70086e-05 -0 7.70086e-05)
(7.6971e-05 1.11017e-14 -0 7.6971e-05 -0 7.6971e-05)
(7.6955e-05 -1.81832e-15 -0 7.6955e-05 -0 7.6955e-05)
(7.69237e-05 1.15124e-15 -0 7.69237e-05 -0 7.69237e-05)
(7.69113e-05 3.02735e-16 -0 7.69113e-05 -0 7.69113e-05)
(7.68867e-05 4.09325e-16 -0 7.68867e-05 -0 7.68867e-05)
(7.68775e-05 3.08572e-16 -0 7.68775e-05 -0 7.68775e-05)
(7.686e-05 2.44655e-16 -0 7.686e-05 -0 7.686e-05)
(7.68539e-05 1.34616e-16 -0 7.68539e-05 -0 7.68539e-05)
(7.68432e-05 1.97218e-17 -0 7.68432e-05 -0 7.68432e-05)
(7.68402e-05 2.48635e-17 -0 7.68402e-05 -0 7.68402e-05)
(7.68367e-05 1.12902e-16 -0 7.68367e-05 -0 7.68367e-05)
(7.68355e-05 -1.30278e-16 -0 7.68355e-05 -0 7.68355e-05)
(7.8548e-05 -1.86998e-10 -0 7.8548e-05 -0 7.8548e-05)
(7.85439e-05 2.36351e-10 -0 7.85439e-05 -0 7.85439e-05)
(7.84707e-05 -5.68218e-11 -0 7.84707e-05 -0 7.84707e-05)
(7.84412e-05 1.33827e-11 -0 7.84412e-05 -0 7.84412e-05)
(7.8389e-05 -3.2209e-12 -0 7.8389e-05 -0 7.8389e-05)
(7.83643e-05 7.69246e-13 -0 7.83643e-05 -0 7.83643e-05)
(7.83178e-05 -1.81681e-13 -0 7.83178e-05 -0 7.83178e-05)
(7.8298e-05 4.53525e-14 -0 7.8298e-05 -0 7.8298e-05)
(7.82582e-05 -9.7109e-15 -0 7.82582e-05 -0 7.82582e-05)
(7.82423e-05 3.1865e-15 -0 7.82423e-05 -0 7.82423e-05)
(7.82093e-05 -1.16372e-16 -0 7.82093e-05 -0 7.82093e-05)
(7.81973e-05 5.39561e-16 -0 7.81973e-05 -0 7.81973e-05)
(7.81716e-05 2.8124e-16 -0 7.81716e-05 -0 7.81716e-05)
(7.8162e-05 2.71586e-16 -0 7.8162e-05 -0 7.8162e-05)
(7.81442e-05 1.95402e-16 -0 7.81442e-05 -0 7.81442e-05)
(7.81374e-05 1.07045e-16 -0 7.81374e-05 -0 7.81374e-05)
(7.81267e-05 6.28531e-18 -0 7.81267e-05 -0 7.81267e-05)
(7.81234e-05 1.69111e-17 -0 7.81234e-05 -0 7.81234e-05)
(7.81198e-05 1.0056e-16 -0 7.81198e-05 -0 7.81198e-05)
(7.81186e-05 -1.01159e-16 -0 7.81186e-05 -0 7.81186e-05)
(8.00211e-05 1.9027e-10 -0 8.00211e-05 -0 8.00211e-05)
(8.00169e-05 -2.4114e-10 -0 8.00169e-05 -0 8.00169e-05)
(7.99401e-05 5.79626e-11 -0 7.99401e-05 -0 7.99401e-05)
(7.99101e-05 -1.36432e-11 -0 7.99101e-05 -0 7.99101e-05)
(7.98561e-05 3.29207e-12 -0 7.98561e-05 -0 7.98561e-05)
(7.98299e-05 -7.80495e-13 -0 7.98299e-05 -0 7.98299e-05)
(7.97832e-05 1.88602e-13 -0 7.97832e-05 -0 7.97832e-05)
(7.97609e-05 -4.40825e-14 -0 7.97609e-05 -0 7.97609e-05)
(7.97217e-05 1.15427e-14 -0 7.97217e-05 -0 7.97217e-05)
(7.97029e-05 -2.05237e-15 -0 7.97029e-05 -0 7.97029e-05)
(7.96714e-05 1.05221e-15 -0 7.96714e-05 -0 7.96714e-05)
(7.9656e-05 1.70669e-16 -0 7.9656e-05 -0 7.9656e-05)
(7.96318e-05 2.97618e-16 -0 7.96318e-05 -0 7.96318e-05)
(7.96203e-05 2.03735e-16 -0 7.96203e-05 -0 7.96203e-05)
(7.96026e-05 1.61116e-16 -0 7.96026e-05 -0 7.96026e-05)
(7.95953e-05 8.90857e-17 -0 7.95953e-05 -0 7.95953e-05)
(7.95846e-05 2.07987e-17 -0 7.95846e-05 -0 7.95846e-05)
(7.95808e-05 2.37139e-17 -0 7.95808e-05 -0 7.95808e-05)
(7.95772e-05 8.10186e-17 -0 7.95772e-05 -0 7.95772e-05)
(7.95759e-05 -7.30132e-17 -0 7.95759e-05 -0 7.95759e-05)
(8.14355e-05 -1.9352e-10 -0 8.14355e-05 -0 8.14355e-05)
(8.14341e-05 2.44563e-10 -0 8.1434e-05 -0 8.14341e-05)
(8.13572e-05 -5.87474e-11 -0 8.13572e-05 -0 8.13572e-05)
(8.13274e-05 1.38215e-11 -0 8.13274e-05 -0 8.13274e-05)
(8.12756e-05 -3.31707e-12 -0 8.12756e-05 -0 8.12756e-05)
(8.12478e-05 7.9184e-13 -0 8.12478e-05 -0 8.12478e-05)
(8.12035e-05 -1.86034e-13 -0 8.12035e-05 -0 8.12035e-05)
(8.11792e-05 4.60304e-14 -0 8.11792e-05 -0 8.11792e-05)
(8.11417e-05 -1.0115e-14 -0 8.11417e-05 -0 8.11417e-05)
(8.11217e-05 2.98748e-15 -0 8.11217e-05 -0 8.11217e-05)
(8.10904e-05 -3.01923e-16 -0 8.10904e-05 -0 8.10904e-05)
(8.10747e-05 3.93642e-16 -0 8.10747e-05 -0 8.10747e-05)
(8.10501e-05 1.65632e-16 -0 8.10501e-05 -0 8.10501e-05)
(8.10382e-05 1.77573e-16 -0 8.10382e-05 -0 8.10382e-05)
(8.10211e-05 1.32551e-16 -0 8.10211e-05 -0 8.10211e-05)
(8.10127e-05 9.21688e-17 -0 8.10127e-05 -0 8.10127e-05)
(8.10026e-05 3.56847e-17 -0 8.10026e-05 -0 8.10026e-05)
(8.09982e-05 2.21889e-17 -0 8.09982e-05 -0 8.09982e-05)
(8.09947e-05 5.76583e-17 -0 8.09947e-05 -0 8.09947e-05)
(8.09933e-05 -4.25885e-17 -0 8.09933e-05 -0 8.09933e-05)
(8.19256e-05 1.89982e-10 -0 8.19256e-05 -0 8.19256e-05)
(8.19231e-05 -2.29502e-10 -0 8.19231e-05 -0 8.19231e-05)
(8.1922e-05 5.55435e-11 -0 8.1922e-05 -0 8.1922e-05)
(8.19209e-05 -1.31349e-11 -0 8.19209e-05 -0 8.19209e-05)
(8.192e-05 3.171e-12 -0 8.192e-05 -0 8.192e-05)
(8.19192e-05 -7.63356e-13 -0 8.19192e-05 -0 8.19192e-05)
(8.19183e-05 1.78583e-13 -0 8.19183e-05 -0 8.19183e-05)
(8.19176e-05 -4.63146e-14 -0 8.19176e-05 -0 8.19176e-05)
(8.19174e-05 8.86055e-15 -0 8.19174e-05 -0 8.19174e-05)
(8.19166e-05 -3.69305e-15 -0 8.19166e-05 -0 8.19166e-05)
(8.19165e-05 -1.28757e-16 -0 8.19165e-05 -0 8.19165e-05)
(8.1916e-05 -5.9314e-16 -0 8.1916e-05 -0 8.1916e-05)
(8.1916e-05 -1.87254e-16 -0 8.1916e-05 -0 8.1916e-05)
(8.19157e-05 -7.85431e-17 -0 8.19157e-05 -0 8.19157e-05)
(8.19156e-05 2.65677e-17 -0 8.19156e-05 -0 8.19156e-05)
(8.19155e-05 4.40054e-17 -0 8.19155e-05 -0 8.19155e-05)
(8.19155e-05 9.97948e-18 -0 8.19155e-05 -0 8.19155e-05)
(8.19154e-05 2.9763e-17 -0 8.19154e-05 -0 8.19154e-05)
(8.19154e-05 1.06473e-16 -0 8.19154e-05 -0 8.19154e-05)
(8.19154e-05 1.94719e-17 -0 8.19154e-05 -0 8.19154e-05)
)
;

boundaryField
{
    movingWall
    {
        type            kqRWallFunction;
        value           nonuniform List<symmTensor> 
20
(
(8.19256e-05 0 -0 8.19256e-05 -0 8.19256e-05)
(8.19231e-05 -0 -0 8.19231e-05 -0 8.19231e-05)
(8.1922e-05 0 -0 8.1922e-05 -0 8.1922e-05)
(8.19209e-05 -0 -0 8.19209e-05 -0 8.19209e-05)
(8.192e-05 0 -0 8.192e-05 -0 8.192e-05)
(8.19192e-05 -0 -0 8.19192e-05 -0 8.19192e-05)
(8.19183e-05 0 -0 8.19183e-05 -0 8.19183e-05)
(8.19176e-05 -0 -0 8.19176e-05 -0 8.19176e-05)
(8.19174e-05 0 -0 8.19174e-05 -0 8.19174e-05)
(8.19166e-05 -0 -0 8.19166e-05 -0 8.19166e-05)
(8.19165e-05 -0 -0 8.19165e-05 -0 8.19165e-05)
(8.1916e-05 -0 -0 8.1916e-05 -0 8.1916e-05)
(8.1916e-05 -0 -0 8.1916e-05 -0 8.1916e-05)
(8.19157e-05 -0 -0 8.19157e-05 -0 8.19157e-05)
(8.19156e-05 -0 -0 8.19156e-05 -0 8.19156e-05)
(8.19155e-05 0 -0 8.19155e-05 -0 8.19155e-05)
(8.19155e-05 -0 -0 8.19155e-05 -0 8.19155e-05)
(8.19154e-05 0 -0 8.19154e-05 -0 8.19154e-05)
(8.19154e-05 0 -0 8.19154e-05 -0 8.19154e-05)
(8.19154e-05 0 -0 8.19154e-05 -0 8.19154e-05)
)
;
    }
    fixedWalls
    {
        type            kqRWallFunction;
        value           nonuniform List<symmTensor> 
60
(
(2.6833e-05 -0 -0 2.6833e-05 -0 2.6833e-05)
(3.63148e-05 0 -0 3.63148e-05 -0 3.63148e-05)
(4.86361e-05 -0 -0 4.86361e-05 -0 4.86361e-05)
(5.824e-05 0 -0 5.824e-05 -0 5.824e-05)
(6.4268e-05 -0 -0 6.4268e-05 -0 6.4268e-05)
(6.77003e-05 0 -0 6.77003e-05 -0 6.77003e-05)
(6.96423e-05 -0 -0 6.96423e-05 -0 6.96423e-05)
(7.08258e-05 0 -0 7.08258e-05 -0 7.08258e-05)
(7.1656e-05 -0 -0 7.1656e-05 -0 7.1656e-05)
(7.23409e-05 0 -0 7.23409e-05 -0 7.23409e-05)
(7.29885e-05 -0 -0 7.29885e-05 -0 7.29885e-05)
(7.3658e-05 0 -0 7.3658e-05 -0 7.3658e-05)
(7.43876e-05 -0 -0 7.43876e-05 -0 7.43876e-05)
(7.52084e-05 0 -0 7.52084e-05 -0 7.52084e-05)
(7.61501e-05 -0 -0 7.61501e-05 -0 7.61501e-05)
(7.72507e-05 0 -0 7.72507e-05 -0 7.72507e-05)
(7.8548e-05 -0 -0 7.8548e-05 -0 7.8548e-05)
(8.00211e-05 0 -0 8.00211e-05 -0 8.00211e-05)
(8.14355e-05 -0 -0 8.14355e-05 -0 8.14355e-05)
(8.19256e-05 0 -0 8.19256e-05 -0 8.19256e-05)
(2.68296e-05 -0 -0 2.68296e-05 -0 2.68296e-05)
(3.62276e-05 -0 -0 3.62276e-05 -0 3.62276e-05)
(4.8479e-05 -0 -0 4.8479e-05 -0 4.8479e-05)
(5.8011e-05 -0 -0 5.8011e-05 -0 5.8011e-05)
(6.39854e-05 -0 -0 6.39854e-05 -0 6.39854e-05)
(6.73848e-05 -0 -0 6.73848e-05 -0 6.73848e-05)
(6.9307e-05 -0 -0 6.9307e-05 -0 6.9307e-05)
(7.0478e-05 -0 -0 7.0478e-05 -0 7.0478e-05)
(7.12998e-05 -0 -0 7.12998e-05 -0 7.12998e-05)
(7.19778e-05 -0 -0 7.19778e-05 -0 7.19778e-05)
(7.26184e-05 -0 -0 7.26184e-05 -0 7.26184e-05)
(7.32809e-05 -0 -0 7.32809e-05 -0 7.32809e-05)
(7.40031e-05 -0 -0 7.40031e-05 -0 7.40031e-05)
(7.4815e-05 -0 -0 7.4815e-05 -0 7.4815e-05)
(7.57468e-05 -0 -0 7.57468e-05 -0 7.57468e-05)
(7.68355e-05 -0 -0 7.68355e-05 -0 7.68355e-05)
(7.81186e-05 -0 -0 7.81186e-05 -0 7.81186e-05)
(7.95759e-05 -0 -0 7.95759e-05 -0 7.95759e-05)
(8.09933e-05 -0 -0 8.09933e-05 -0 8.09933e-05)
(8.19154e-05 -0 -0 8.19154e-05 -0 8.19154e-05)
(2.6833e-05 -0 -0 2.6833e-05 -0 2.6833e-05)
(2.68325e-05 0 -0 2.68325e-05 -0 2.68325e-05)
(2.68321e-05 -0 -0 2.68321e-05 -0 2.68321e-05)
(2.68318e-05 0 -0 2.68318e-05 -0 2.68318e-05)
(2.68315e-05 -0 -0 2.68315e-05 -0 2.68315e-05)
(2.68312e-05 0 -0 2.68312e-05 -0 2.68312e-05)
(2.68309e-05 -0 -0 2.68309e-05 -0 2.68309e-05)
(2.68307e-05 0 -0 2.68307e-05 -0 2.68307e-05)
(2.68305e-05 -0 -0 2.68305e-05 -0 2.68305e-05)
(2.68303e-05 0 -0 2.68303e-05 -0 2.68303e-05)
(2.68302e-05 0 -0 2.68302e-05 -0 2.68302e-05)
(2.68301e-05 0 -0 2.68301e-05 -0 2.68301e-05)
(2.68299e-05 0 -0 2.68299e-05 -0 2.68299e-05)
(2.68299e-05 0 -0 2.68299e-05 -0 2.68299e-05)
(2.68298e-05 0 -0 2.68298e-05 -0 2.68298e-05)
(2.68297e-05 0 -0 2.68297e-05 -0 2.68297e-05)
(2.68297e-05 0 -0 2.68297e-05 -0 2.68297e-05)
(2.68297e-05 0 -0 2.68297e-05 -0 2.68297e-05)
(2.68296e-05 0 -0 2.68296e-05 -0 2.68296e-05)
(2.68296e-05 0 -0 2.68296e-05 -0 2.68296e-05)
)
;
    }
    frontAndBack
    {
        type            empty;
    }
}


// ************************************************************************* //
