/*--------------------------------*- C++ -*----------------------------------*\
| =========                 |                                                 |
| \\      /  F ield         | OpenFOAM: The Open Source CFD Toolbox           |
|  \\    /   O peration     | Version:  2506                                  |
|   \\  /    A nd           | Website:  www.openfoam.com                      |
|    \\/     M anipulation  |                                                 |
\*---------------------------------------------------------------------------*/
FoamFile
{
    version     2.0;
    format      ascii;
    arch        "LSB;label=32;scalar=64";
    class       volScalarField;
    location    "3.5";
    object      turbulenceProperties:omega;
}
// * * * * * * * * * * * * * * * * * * * * * * * * * * * * * * * * * * * * * //

dimensions      [0 0 -1 0 0 0 0];

internalField   nonuniform List<scalar> 
400
(
11.3705
11.3703
11.3704
11.3701
11.3702
11.37
11.3701
11.3699
11.37
11.3699
11.3699
11.3698
11.3698
11.3698
11.3698
11.3698
11.3698
11.3698
11.3698
11.3698
13.2585
12.7025
12.7482
12.7675
12.806
12.8257
12.8643
12.8847
12.9233
12.9445
12.983
13.0051
13.0435
13.0665
13.1047
13.1287
13.1667
13.1917
13.2108
13.2423
15.3744
14.6036
14.6672
14.6939
14.7471
14.7747
14.8278
14.8566
14.9094
14.9393
14.9919
15.0229
15.0754
15.1075
15.1597
15.1931
15.245
15.2797
15.3058
15.3491
16.8413
15.8969
15.9742
16.0066
16.0714
16.105
16.1697
16.2047
16.269
16.3057
16.3698
16.4079
16.4718
16.5114
16.5751
16.6163
16.6796
16.7225
16.7543
16.8074
17.7001
16.6466
16.732
16.7683
16.8401
16.8776
16.9494
16.9886
17.06
17.1009
17.1722
17.2147
17.2858
17.3301
17.4007
17.447
17.5173
17.5655
17.6009
17.6602
18.1709
17.056
17.1462
17.1844
17.26
17.2998
17.3756
17.4169
17.4925
17.5357
17.6109
17.6561
17.7311
17.7781
17.8528
17.9018
17.9761
18.0273
18.0647
18.1274
18.432
17.2828
17.3754
17.4148
17.4929
17.5337
17.6117
17.6542
17.7321
17.7765
17.8541
17.9006
17.9779
18.0263
18.1033
18.1538
18.2303
18.2832
18.3217
18.3863
18.5892
17.4193
17.5139
17.5537
17.6333
17.6749
17.754
17.7976
17.8764
17.9221
18.0006
18.0482
18.1264
18.1761
18.2541
18.3058
18.3835
18.4374
18.4766
18.5424
18.699
17.5149
17.6104
17.6509
17.7311
17.7732
17.8534
17.8973
17.9774
18.0232
18.1031
18.1509
18.2304
18.2804
18.3596
18.4118
18.4904
18.545
18.5847
18.6513
18.7892
17.5934
17.6899
17.7306
17.8117
17.854
17.9354
17.9792
18.0605
18.1064
18.1873
18.2353
18.3159
18.3661
18.4462
18.4988
18.5784
18.6334
18.6735
18.7407
18.874
17.6673
17.7647
17.8056
17.8876
17.9303
18.0121
18.0568
18.1384
18.185
18.2663
18.3151
18.396
18.447
18.5276
18.5808
18.661
18.7166
18.757
18.8249
18.9614
17.7434
17.8419
17.8831
17.9655
18.0091
18.0911
18.1367
18.2184
18.266
18.3477
18.3972
18.4786
18.5304
18.6113
18.6654
18.746
18.8024
18.8431
18.9116
19.0564
17.8263
17.9251
17.9671
18.0503
18.094
18.1774
18.2227
18.3061
18.3533
18.4363
18.486
18.5685
18.6205
18.7026
18.7569
18.8386
18.8954
18.9365
19.0058
19.1624
17.9185
18.0187
18.0609
18.1451
18.1894
18.2733
18.3196
18.4032
18.4517
18.5351
18.5856
18.6689
18.7216
18.8044
18.8595
18.9419
18.9994
19.041
19.111
19.2836
18.0239
18.1252
18.168
18.2532
18.2978
18.383
18.4296
18.5147
18.5633
18.6481
18.699
18.7834
18.8366
18.9207
18.9763
19.0599
19.1181
19.1602
19.2311
19.4243
18.1462
18.2486
18.2922
18.3786
18.4238
18.5104
18.5574
18.6438
18.693
18.7791
18.8306
18.9164
18.9703
19.0556
19.112
19.1969
19.2559
19.2987
19.3706
19.5888
18.2891
18.3932
18.4374
18.5253
18.5711
18.6593
18.7069
18.7949
18.8448
18.9325
18.9846
19.0719
19.1267
19.2134
19.2709
19.3571
19.4172
19.4606
19.5338
19.7743
18.4509
18.5569
18.6017
18.6911
18.7379
18.8271
18.8761
18.965
19.0165
19.1049
19.1589
19.247
19.3034
19.3913
19.4501
19.5376
19.5991
19.6432
19.7178
19.9511
18.6398
18.7424
18.7858
18.8724
18.9186
19.0053
19.054
19.1409
19.1923
19.2794
19.3335
19.4207
19.4778
19.565
19.6251
19.7123
19.7756
19.8198
19.8954
20.0116
20.0115
20.0112
20.011
20.0111
20.0107
20.0109
20.0106
20.0107
20.0104
20.0106
20.0104
20.0105
20.0104
20.0104
20.0104
20.0104
20.0104
20.0104
20.0104
)
;

boundaryField
{
    movingWall
    {
        type            calculated;
        value           nonuniform List<scalar> 
20
(
20.0116
20.0115
20.0112
20.011
20.0111
20.0107
20.0109
20.0106
20.0107
20.0104
20.0106
20.0104
20.0105
20.0104
20.0104
20.0104
20.0104
20.0104
20.0104
20.0104
)
;
    }
    fixedWalls
    {
        type            calculated;
        value           nonuniform List<scalar> 
60
(
11.3705
13.2585
15.3744
16.8413
17.7001
18.1709
18.432
18.5892
18.699
18.7892
18.874
18.9614
19.0564
19.1624
19.2836
19.4243
19.5888
19.7743
19.9511
20.0116
11.3698
13.2423
15.3491
16.8074
17.6602
18.1274
18.3863
18.5424
18.6513
18.7407
18.8249
18.9116
19.0058
19.111
19.2311
19.3706
19.5338
19.7178
19.8954
20.0104
11.3705
11.3703
11.3704
11.3701
11.3702
11.37
11.3701
11.3699
11.37
11.3699
11.3699
11.3698
11.3698
11.3698
11.3698
11.3698
11.3698
11.3698
11.3698
11.3698
)
;
    }
    frontAndBack
    {
        type            empty;
    }
}


// ************************************************************************* //
