/*--------------------------------*- C++ -*----------------------------------*\
| =========                 |                                                 |
| \\      /  F ield         | OpenFOAM: The Open Source CFD Toolbox           |
|  \\    /   O peration     | Version:  2506                                  |
|   \\  /    A nd           | Website:  www.openfoam.com                      |
|    \\/     M anipulation  |                                                 |
\*---------------------------------------------------------------------------*/
FoamFile
{
    version     2.0;
    format      ascii;
    arch        "LSB;label=32;scalar=64";
    class       volScalarField;
    location    "3.5";
    object      turbulenceProperties:nuEff;
}
// * * * * * * * * * * * * * * * * * * * * * * * * * * * * * * * * * * * * * //

dimensions      [0 2 -1 0 0 0 0];

internalField   nonuniform List<scalar> 
400
(
1.35398e-05
1.35398e-05
1.35397e-05
1.35398e-05
1.35397e-05
1.35397e-05
1.35397e-05
1.35397e-05
1.35397e-05
1.35396e-05
1.35396e-05
1.35396e-05
1.35396e-05
1.35396e-05
1.35396e-05
1.35396e-05
1.35396e-05
1.35396e-05
1.35396e-05
1.35396e-05
1.41085e-05
1.42883e-05
1.42711e-05
1.4264e-05
1.42499e-05
1.42428e-05
1.4229e-05
1.42218e-05
1.42082e-05
1.4201e-05
1.41877e-05
1.41803e-05
1.41674e-05
1.41599e-05
1.41473e-05
1.41396e-05
1.41274e-05
1.41195e-05
1.41134e-05
1.41036e-05
1.47452e-05
1.49955e-05
1.4971e-05
1.49609e-05
1.49411e-05
1.49309e-05
1.49116e-05
1.49013e-05
1.48826e-05
1.48721e-05
1.48539e-05
1.48433e-05
1.48256e-05
1.48149e-05
1.47978e-05
1.4787e-05
1.47703e-05
1.47593e-05
1.47511e-05
1.47376e-05
1.51872e-05
1.54952e-05
1.54649e-05
1.54525e-05
1.54278e-05
1.54153e-05
1.53914e-05
1.53786e-05
1.53556e-05
1.53426e-05
1.53202e-05
1.53071e-05
1.52854e-05
1.52722e-05
1.52511e-05
1.52377e-05
1.52174e-05
1.52038e-05
1.51937e-05
1.51773e-05
1.54464e-05
1.57908e-05
1.5757e-05
1.57428e-05
1.57152e-05
1.5701e-05
1.56743e-05
1.56599e-05
1.56341e-05
1.56195e-05
1.55945e-05
1.55798e-05
1.55555e-05
1.55407e-05
1.55172e-05
1.55022e-05
1.54795e-05
1.54643e-05
1.54531e-05
1.54347e-05
1.55886e-05
1.59537e-05
1.59177e-05
1.59026e-05
1.58735e-05
1.58583e-05
1.58299e-05
1.58147e-05
1.57872e-05
1.57718e-05
1.57453e-05
1.57296e-05
1.57039e-05
1.56882e-05
1.56633e-05
1.56473e-05
1.56234e-05
1.56072e-05
1.55954e-05
1.55759e-05
1.56675e-05
1.60441e-05
1.6007e-05
1.59913e-05
1.59612e-05
1.59456e-05
1.59162e-05
1.59006e-05
1.58721e-05
1.58563e-05
1.58288e-05
1.58127e-05
1.57862e-05
1.577e-05
1.57443e-05
1.57278e-05
1.57032e-05
1.56864e-05
1.56743e-05
1.56542e-05
1.57151e-05
1.60986e-05
1.60605e-05
1.60448e-05
1.60139e-05
1.5998e-05
1.59683e-05
1.59521e-05
1.59234e-05
1.5907e-05
1.58792e-05
1.58626e-05
1.58359e-05
1.58191e-05
1.57932e-05
1.57763e-05
1.57512e-05
1.57341e-05
1.57218e-05
1.57014e-05
1.57481e-05
1.61364e-05
1.6098e-05
1.60819e-05
1.60508e-05
1.60346e-05
1.60044e-05
1.59882e-05
1.59588e-05
1.59425e-05
1.59141e-05
1.58976e-05
1.58702e-05
1.58534e-05
1.5827e-05
1.581e-05
1.57846e-05
1.57673e-05
1.57548e-05
1.57342e-05
1.57752e-05
1.61674e-05
1.61285e-05
1.61124e-05
1.60809e-05
1.60647e-05
1.60339e-05
1.60178e-05
1.59879e-05
1.59716e-05
1.59427e-05
1.59262e-05
1.58984e-05
1.58816e-05
1.58548e-05
1.58377e-05
1.5812e-05
1.57946e-05
1.57819e-05
1.57611e-05
1.58007e-05
1.61966e-05
1.61573e-05
1.6141e-05
1.61091e-05
1.60927e-05
1.60618e-05
1.60453e-05
1.60154e-05
1.59987e-05
1.59698e-05
1.59529e-05
1.5925e-05
1.59079e-05
1.5881e-05
1.58637e-05
1.58377e-05
1.58202e-05
1.58074e-05
1.57863e-05
1.5827e-05
1.62267e-05
1.61867e-05
1.61704e-05
1.61384e-05
1.61215e-05
1.60907e-05
1.60736e-05
1.60438e-05
1.60266e-05
1.59976e-05
1.59804e-05
1.59525e-05
1.5935e-05
1.5908e-05
1.58903e-05
1.58643e-05
1.58465e-05
1.58336e-05
1.58124e-05
1.58553e-05
1.6259e-05
1.62191e-05
1.62023e-05
1.61699e-05
1.61531e-05
1.61215e-05
1.61048e-05
1.60741e-05
1.60573e-05
1.60276e-05
1.60105e-05
1.5982e-05
1.59645e-05
1.59371e-05
1.59194e-05
1.5893e-05
1.5875e-05
1.5862e-05
1.58406e-05
1.58872e-05
1.62956e-05
1.62549e-05
1.6238e-05
1.62052e-05
1.61881e-05
1.61564e-05
1.61391e-05
1.61085e-05
1.60911e-05
1.60614e-05
1.60438e-05
1.60152e-05
1.59974e-05
1.59698e-05
1.59518e-05
1.59252e-05
1.5907e-05
1.58938e-05
1.58721e-05
1.59234e-05
1.63371e-05
1.62959e-05
1.62789e-05
1.62456e-05
1.62284e-05
1.61961e-05
1.61788e-05
1.61474e-05
1.61301e-05
1.60998e-05
1.60821e-05
1.60529e-05
1.60351e-05
1.6007e-05
1.59889e-05
1.59618e-05
1.59434e-05
1.59301e-05
1.59081e-05
1.59655e-05
1.63853e-05
1.63437e-05
1.63262e-05
1.62924e-05
1.6275e-05
1.6242e-05
1.62246e-05
1.61928e-05
1.61752e-05
1.61444e-05
1.61266e-05
1.60968e-05
1.60788e-05
1.60502e-05
1.60319e-05
1.60043e-05
1.59857e-05
1.59722e-05
1.59499e-05
1.60148e-05
1.64419e-05
1.63994e-05
1.63817e-05
1.63472e-05
1.63295e-05
1.62959e-05
1.62783e-05
1.62457e-05
1.62279e-05
1.61964e-05
1.61785e-05
1.61482e-05
1.61298e-05
1.61008e-05
1.6082e-05
1.60541e-05
1.60351e-05
1.60214e-05
1.59987e-05
1.60701e-05
1.65051e-05
1.64618e-05
1.64438e-05
1.64086e-05
1.63905e-05
1.63565e-05
1.63382e-05
1.63054e-05
1.62869e-05
1.62553e-05
1.62365e-05
1.62061e-05
1.6187e-05
1.61576e-05
1.61384e-05
1.61101e-05
1.60907e-05
1.60767e-05
1.60536e-05
1.61226e-05
1.65532e-05
1.65112e-05
1.64938e-05
1.64599e-05
1.64419e-05
1.6409e-05
1.63907e-05
1.63588e-05
1.63402e-05
1.63091e-05
1.62902e-05
1.62601e-05
1.62408e-05
1.62117e-05
1.6192e-05
1.61639e-05
1.61438e-05
1.61298e-05
1.61064e-05
1.61409e-05
1.61407e-05
1.61407e-05
1.61407e-05
1.61406e-05
1.61406e-05
1.61405e-05
1.61406e-05
1.61405e-05
1.61405e-05
1.61405e-05
1.61405e-05
1.61405e-05
1.61405e-05
1.61405e-05
1.61405e-05
1.61405e-05
1.61405e-05
1.61405e-05
1.61405e-05
)
;

boundaryField
{
    movingWall
    {
        type            calculated;
        value           uniform 1e-05;
    }
    fixedWalls
    {
        type            calculated;
        value           uniform 1e-05;
    }
    frontAndBack
    {
        type            empty;
    }
}


// ************************************************************************* //
