/*--------------------------------*- C++ -*----------------------------------*\
| =========                 |                                                 |
| \\      /  F ield         | OpenFOAM: The Open Source CFD Toolbox           |
|  \\    /   O peration     | Version:  2506                                  |
|   \\  /    A nd           | Website:  www.openfoam.com                      |
|    \\/     M anipulation  |                                                 |
\*---------------------------------------------------------------------------*/
FoamFile
{
    version     2.0;
    format      ascii;
    arch        "LSB;label=32;scalar=64";
    class       volScalarField;
    location    "3.5";
    object      turbulenceProperties:I;
}
// * * * * * * * * * * * * * * * * * * * * * * * * * * * * * * * * * * * * * //

dimensions      [0 0 0 0 0 0 0];

internalField   nonuniform List<scalar> 
400
(
0.00518005
0.00518001
0.00517997
0.00517994
0.00517991
0.00517988
0.00517986
0.00517984
0.00517982
0.0051798
0.00517979
0.00517977
0.00517976
0.00517975
0.00517975
0.00517974
0.00517974
0.00517974
0.00517973
0.00517973
0.00602618
0.00602613
0.00602491
0.00602442
0.00602352
0.00602312
0.00602233
0.00602201
0.00602132
0.00602106
0.00602049
0.00602029
0.00601983
0.0060197
0.00601936
0.00601927
0.00601907
0.00601903
0.00601896
0.00601894
0.00697396
0.00697386
0.00697191
0.00697115
0.00696979
0.00696911
0.00696797
0.00696736
0.00696641
0.00696589
0.00696512
0.00696471
0.0069641
0.0069638
0.00696338
0.00696317
0.00696292
0.00696281
0.00696272
0.00696269
0.00763152
0.0076314
0.00762878
0.0076278
0.00762596
0.00762509
0.00762353
0.00762274
0.00762147
0.00762078
0.00761975
0.00761921
0.00761838
0.007618
0.00761739
0.00761715
0.00761679
0.00761666
0.00761654
0.00761649
0.00801673
0.00801656
0.00801357
0.00801233
0.00801022
0.00800916
0.00800735
0.00800641
0.0080049
0.00800412
0.00800288
0.00800227
0.00800129
0.00800084
0.00800016
0.00799985
0.00799945
0.00799928
0.00799914
0.00799909
0.00822802
0.00822784
0.00822457
0.00822322
0.00822099
0.00821979
0.0082178
0.00821683
0.00821515
0.00821432
0.00821297
0.00821229
0.00821122
0.00821074
0.00820998
0.00820965
0.00820921
0.00820903
0.00820888
0.00820882
0.0083452
0.008345
0.0083416
0.00834018
0.00833778
0.00833657
0.00833448
0.00833349
0.00833169
0.00833086
0.0083294
0.00832873
0.00832759
0.0083271
0.00832627
0.00832595
0.00832548
0.0083253
0.00832514
0.00832508
0.00841581
0.00841562
0.00841203
0.00841064
0.00840814
0.00840689
0.00840481
0.00840368
0.00840196
0.00840099
0.00839959
0.00839882
0.00839774
0.00839716
0.00839639
0.008396
0.00839554
0.00839534
0.00839518
0.00839512
0.00846499
0.00846478
0.00846118
0.00845971
0.00845722
0.00845593
0.00845378
0.00845269
0.00845083
0.00844996
0.00844842
0.00844773
0.00844654
0.00844603
0.00844517
0.00844483
0.00844434
0.00844414
0.00844398
0.00844392
0.00850535
0.00850515
0.00850148
0.00850003
0.00849747
0.00849622
0.00849391
0.00849293
0.00849094
0.00849014
0.00848851
0.00848789
0.0084866
0.00848614
0.00848523
0.00848492
0.00848437
0.00848421
0.00848403
0.00848397
0.00854333
0.00854314
0.00853938
0.00853793
0.0085353
0.00853402
0.00853176
0.00853066
0.00852874
0.00852785
0.00852628
0.00852557
0.00852434
0.00852383
0.00852293
0.0085226
0.00852206
0.00852188
0.0085217
0.00852164
0.00858242
0.00858224
0.00857836
0.00857693
0.00857433
0.00857293
0.00857075
0.00856952
0.0085677
0.00856667
0.00856516
0.00856437
0.00856321
0.00856259
0.00856178
0.00856136
0.00856088
0.00856066
0.00856049
0.00856043
0.00862482
0.0086246
0.00862081
0.00861925
0.0086166
0.00861526
0.00861291
0.00861183
0.00860979
0.00860894
0.00860727
0.00860656
0.00860529
0.00860475
0.00860385
0.00860348
0.00860294
0.00860275
0.00860257
0.00860251
0.00867228
0.00867207
0.00866813
0.0086666
0.00866389
0.00866249
0.00866019
0.00865897
0.00865705
0.00865603
0.00865444
0.00865366
0.0086524
0.00865182
0.00865094
0.00865054
0.00865003
0.00864981
0.00864964
0.00864957
0.0087264
0.00872618
0.00872219
0.00872063
0.00871786
0.00871649
0.00871406
0.00871292
0.00871083
0.00870991
0.0087082
0.00870747
0.00870613
0.0087056
0.00870463
0.00870428
0.00870372
0.00870352
0.00870333
0.00870327
0.00878924
0.008789
0.00878499
0.00878333
0.0087805
0.0087791
0.00877657
0.00877545
0.00877331
0.0087724
0.00877061
0.00876991
0.00876851
0.00876798
0.00876698
0.00876663
0.00876603
0.00876585
0.00876565
0.00876559
0.00886273
0.0088625
0.00885837
0.00885671
0.00885375
0.00885236
0.00884973
0.00884862
0.00884637
0.00884547
0.0088436
0.00884292
0.00884147
0.00884093
0.00883992
0.00883954
0.00883893
0.00883875
0.00883854
0.00883848
0.00894545
0.00894522
0.00894093
0.00893924
0.00893622
0.00893476
0.00893215
0.0089309
0.0089287
0.00892765
0.00892589
0.00892502
0.00892367
0.00892302
0.00892203
0.00892162
0.00892102
0.00892081
0.0089206
0.00892053
0.00902416
0.00902408
0.00901982
0.00901817
0.0090153
0.00901375
0.0090113
0.00900995
0.00900787
0.00900676
0.00900502
0.00900415
0.00900278
0.00900212
0.00900117
0.00900071
0.00900014
0.0089999
0.0089997
0.00899963
0.00905128
0.00905114
0.00905108
0.00905102
0.00905097
0.00905092
0.00905087
0.00905084
0.00905082
0.00905078
0.00905077
0.00905075
0.00905074
0.00905073
0.00905073
0.00905072
0.00905072
0.00905072
0.00905071
0.00905071
)
;

boundaryField
{
    movingWall
    {
        type            calculated;
        value           nonuniform List<scalar> 
20
(
0.00905128
0.00905114
0.00905108
0.00905102
0.00905097
0.00905092
0.00905087
0.00905084
0.00905082
0.00905078
0.00905077
0.00905075
0.00905074
0.00905073
0.00905073
0.00905072
0.00905072
0.00905072
0.00905071
0.00905071
)
;
    }
    fixedWalls
    {
        type            calculated;
        value           nonuniform List<scalar> 
60
(
0.00518005
0.00602618
0.00697396
0.00763152
0.00801673
0.00822802
0.0083452
0.00841581
0.00846499
0.00850535
0.00854333
0.00858242
0.00862482
0.00867228
0.0087264
0.00878924
0.00886273
0.00894545
0.00902416
0.00905128
0.00517973
0.00601894
0.00696269
0.00761649
0.00799909
0.00820882
0.00832508
0.00839512
0.00844392
0.00848397
0.00852164
0.00856043
0.00860251
0.00864957
0.00870327
0.00876559
0.00883848
0.00892053
0.00899963
0.00905071
0.00518005
0.00518001
0.00517997
0.00517994
0.00517991
0.00517988
0.00517986
0.00517984
0.00517982
0.0051798
0.00517979
0.00517977
0.00517976
0.00517975
0.00517975
0.00517974
0.00517974
0.00517974
0.00517973
0.00517973
)
;
    }
    frontAndBack
    {
        type            empty;
    }
}


// ************************************************************************* //
