/*--------------------------------*- C++ -*----------------------------------*\
| =========                 |                                                 |
| \\      /  F ield         | OpenFOAM: The Open Source CFD Toolbox           |
|  \\    /   O peration     | Version:  2506                                  |
|   \\  /    A nd           | Website:  www.openfoam.com                      |
|    \\/     M anipulation  |                                                 |
\*---------------------------------------------------------------------------*/
FoamFile
{
    version     2.0;
    format      ascii;
    arch        "LSB;label=32;scalar=64";
    class       volScalarField;
    location    "3.5";
    object      turbulenceProperties:L;
}
// * * * * * * * * * * * * * * * * * * * * * * * * * * * * * * * * * * * * * //

dimensions      [0 1 0 0 0 0 0];

internalField   nonuniform List<scalar> 
400
(
0.00101868
0.0010187
0.00101868
0.0010187
0.00101868
0.0010187
0.00101868
0.00101869
0.00101869
0.00101869
0.00101869
0.00101869
0.00101869
0.00101869
0.00101869
0.00101869
0.00101869
0.00101869
0.00101869
0.00101869
0.00101632
0.0010608
0.00105678
0.0010551
0.00105177
0.00105009
0.0010468
0.00104508
0.00104184
0.00104009
0.00103691
0.00103511
0.00103199
0.00103015
0.00102709
0.0010252
0.00102221
0.00102026
0.00101877
0.00101635
0.0010143
0.00106782
0.00106289
0.00106085
0.00105681
0.00105473
0.00105079
0.00104866
0.0010448
0.00104263
0.00103886
0.00103665
0.00103295
0.00103072
0.0010271
0.00102482
0.00102129
0.00101895
0.0010172
0.00101433
0.00101326
0.00107344
0.00106787
0.00106558
0.00106102
0.00105869
0.00105424
0.00105185
0.00104752
0.00104507
0.00104084
0.00103834
0.0010342
0.00103167
0.00102762
0.00102505
0.00102111
0.00101847
0.00101652
0.0010133
0.00101276
0.00107683
0.00107093
0.00106845
0.00106361
0.00106111
0.00105638
0.00105382
0.00104921
0.0010466
0.00104209
0.00103944
0.00103504
0.00103233
0.00102805
0.00102529
0.00102112
0.0010183
0.00101623
0.00101281
0.00101252
0.00107868
0.00107258
0.00107002
0.00106505
0.00106244
0.00105755
0.00105492
0.00105014
0.00104745
0.0010428
0.00104005
0.00103552
0.00103272
0.0010283
0.00102545
0.00102116
0.00101823
0.00101611
0.00101258
0.0010124
0.00107969
0.0010735
0.00107088
0.0010658
0.00106316
0.00105818
0.00105551
0.00105065
0.00104792
0.00104318
0.00104039
0.00103578
0.00103293
0.00102844
0.00102554
0.00102118
0.0010182
0.00101604
0.00101246
0.00101232
0.00108029
0.001074
0.00107138
0.00106623
0.00106357
0.00105857
0.00105582
0.00105096
0.00104816
0.00104341
0.00104056
0.00103594
0.00103304
0.00102853
0.00102558
0.00102119
0.00101818
0.001016
0.00101238
0.00101226
0.00108067
0.00107435
0.0010717
0.00106654
0.00106385
0.0010588
0.00105607
0.00105113
0.00104835
0.00104354
0.0010407
0.00103602
0.00103312
0.00102856
0.0010256
0.00102118
0.00101815
0.00101596
0.00101232
0.00101221
0.00108098
0.00107462
0.00107197
0.00106677
0.00106409
0.00105897
0.00105626
0.00105126
0.0010485
0.00104363
0.00104081
0.00103607
0.00103319
0.00102859
0.00102563
0.00102117
0.00101813
0.00101593
0.00101227
0.00101216
0.00108126
0.00107487
0.00107221
0.00106697
0.00106427
0.00105915
0.0010564
0.00105141
0.0010486
0.00104374
0.00104088
0.00103615
0.00103323
0.00102862
0.00102564
0.00102116
0.00101811
0.00101589
0.00101222
0.0010121
0.00108155
0.0010751
0.00107244
0.0010672
0.00106445
0.00105935
0.00105654
0.00105157
0.0010487
0.00104385
0.00104094
0.00103622
0.00103325
0.00102866
0.00102563
0.00102116
0.00101807
0.00101585
0.00101216
0.00101203
0.00108184
0.0010754
0.00107269
0.00106742
0.00106468
0.00105951
0.00105674
0.00105168
0.00104887
0.00104394
0.00104105
0.00103627
0.00103331
0.00102867
0.00102565
0.00102113
0.00101805
0.00101581
0.0010121
0.00101197
0.0010822
0.00107569
0.00107298
0.00106767
0.0010649
0.00105973
0.0010569
0.00105187
0.00104898
0.00104407
0.00104114
0.00103634
0.00103336
0.0010287
0.00102565
0.00102113
0.00101801
0.00101576
0.00101204
0.00101189
0.00108258
0.00107604
0.00107331
0.00106796
0.00106519
0.00105996
0.00105714
0.00105203
0.00104917
0.00104419
0.00104126
0.00103642
0.00103343
0.00102872
0.00102566
0.0010211
0.00101797
0.00101571
0.00101196
0.00101179
0.00108302
0.00107646
0.00107369
0.0010683
0.00106551
0.00106021
0.00105739
0.00105224
0.00104936
0.00104433
0.0010414
0.00103651
0.0010335
0.00102876
0.00102568
0.00102107
0.00101792
0.00101565
0.00101187
0.00101168
0.00108355
0.00107692
0.00107413
0.00106868
0.00106587
0.00106052
0.00105769
0.00105247
0.00104958
0.0010445
0.00104155
0.00103661
0.00103357
0.0010288
0.00102568
0.00102105
0.00101786
0.00101557
0.00101176
0.00101155
0.00108407
0.00107736
0.00107457
0.00106907
0.00106622
0.00106086
0.00105796
0.00105274
0.00104977
0.0010447
0.00104166
0.00103673
0.00103363
0.00102883
0.00102567
0.00102101
0.00101778
0.00101547
0.00101162
0.00101141
0.00108255
0.00107611
0.00107343
0.00106816
0.00106538
0.00106022
0.00105735
0.00105231
0.00104937
0.00104442
0.0010414
0.00103656
0.00103345
0.00102874
0.00102553
0.00102093
0.00101764
0.00101534
0.00101148
0.00101138
0.00101137
0.00101137
0.00101138
0.00101137
0.00101138
0.00101137
0.00101138
0.00101137
0.00101138
0.00101137
0.00101138
0.00101137
0.00101138
0.00101137
0.00101138
0.00101137
0.00101138
0.00101138
0.00101138
)
;

boundaryField
{
    movingWall
    {
        type            calculated;
        value           nonuniform List<scalar> 
20
(
0.00101138
0.00101137
0.00101137
0.00101138
0.00101137
0.00101138
0.00101137
0.00101138
0.00101137
0.00101138
0.00101137
0.00101138
0.00101137
0.00101138
0.00101137
0.00101138
0.00101137
0.00101138
0.00101138
0.00101138
)
;
    }
    fixedWalls
    {
        type            calculated;
        value           nonuniform List<scalar> 
60
(
0.00101868
0.00101632
0.0010143
0.00101326
0.00101276
0.00101252
0.0010124
0.00101232
0.00101226
0.00101221
0.00101216
0.0010121
0.00101203
0.00101197
0.00101189
0.00101179
0.00101168
0.00101155
0.00101141
0.00101138
0.00101869
0.00101635
0.00101433
0.0010133
0.00101281
0.00101258
0.00101246
0.00101238
0.00101232
0.00101227
0.00101222
0.00101216
0.0010121
0.00101204
0.00101196
0.00101187
0.00101176
0.00101162
0.00101148
0.00101138
0.00101868
0.0010187
0.00101868
0.0010187
0.00101868
0.0010187
0.00101868
0.00101869
0.00101869
0.00101869
0.00101869
0.00101869
0.00101869
0.00101869
0.00101869
0.00101869
0.00101869
0.00101869
0.00101869
0.00101869
)
;
    }
    frontAndBack
    {
        type            empty;
    }
}


// ************************************************************************* //
