/*--------------------------------*- C++ -*----------------------------------*\
| =========                 |                                                 |
| \\      /  F ield         | OpenFOAM: The Open Source CFD Toolbox           |
|  \\    /   O peration     | Version:  2506                                  |
|   \\  /    A nd           | Website:  www.openfoam.com                      |
|    \\/     M anipulation  |                                                 |
\*---------------------------------------------------------------------------*/
FoamFile
{
    version     2.0;
    format      ascii;
    arch        "LSB;label=32;scalar=64";
    class       volScalarField;
    location    "3.5";
    object      turbulenceProperties:nut;
}
// * * * * * * * * * * * * * * * * * * * * * * * * * * * * * * * * * * * * * //

dimensions      [0 2 -1 0 0 0 0];

internalField   nonuniform List<scalar> 
400
(
3.5398e-06
3.53982e-06
3.53973e-06
3.53978e-06
3.5397e-06
3.53973e-06
3.53968e-06
3.53969e-06
3.53966e-06
3.53965e-06
3.53964e-06
3.53963e-06
3.53962e-06
3.53962e-06
3.53961e-06
3.53961e-06
3.53961e-06
3.53961e-06
3.53961e-06
3.53961e-06
4.10848e-06
4.28825e-06
4.27113e-06
4.26398e-06
4.2499e-06
4.2428e-06
4.22896e-06
4.2218e-06
4.20824e-06
4.20098e-06
4.18773e-06
4.18034e-06
4.16741e-06
4.15988e-06
4.1473e-06
4.13959e-06
4.12738e-06
4.11949e-06
4.11345e-06
4.10364e-06
4.74517e-06
4.99549e-06
4.97104e-06
4.96093e-06
4.9411e-06
4.93091e-06
4.91164e-06
4.90128e-06
4.88259e-06
4.87209e-06
4.8539e-06
4.84332e-06
4.82561e-06
4.81495e-06
4.79778e-06
4.78696e-06
4.7703e-06
4.75933e-06
4.75109e-06
4.73765e-06
5.18725e-06
5.49525e-06
5.46489e-06
5.45245e-06
5.42782e-06
5.41528e-06
5.39141e-06
5.37863e-06
5.35558e-06
5.34257e-06
5.32023e-06
5.3071e-06
5.28536e-06
5.27216e-06
5.25105e-06
5.23772e-06
5.21735e-06
5.20378e-06
5.19373e-06
5.17726e-06
5.4464e-06
5.79084e-06
5.75698e-06
5.74275e-06
5.71524e-06
5.70104e-06
5.67434e-06
5.65992e-06
5.63408e-06
5.61951e-06
5.59447e-06
5.57979e-06
5.55549e-06
5.54067e-06
5.51723e-06
5.50216e-06
5.47955e-06
5.46426e-06
5.45308e-06
5.43471e-06
5.58865e-06
5.95369e-06
5.91767e-06
5.90256e-06
5.87352e-06
5.85829e-06
5.82991e-06
5.81472e-06
5.78722e-06
5.77179e-06
5.74525e-06
5.72961e-06
5.70389e-06
5.68815e-06
5.6633e-06
5.64734e-06
5.62341e-06
5.60719e-06
5.59538e-06
5.57593e-06
5.66752e-06
6.04408e-06
6.00698e-06
5.99133e-06
5.96116e-06
5.94555e-06
5.91624e-06
5.90062e-06
5.87214e-06
5.85631e-06
5.82881e-06
5.81275e-06
5.78618e-06
5.76995e-06
5.74428e-06
5.72784e-06
5.70317e-06
5.68643e-06
5.67426e-06
5.65422e-06
5.71507e-06
6.09862e-06
6.06052e-06
6.04477e-06
6.01394e-06
5.998e-06
5.96832e-06
5.95206e-06
5.92343e-06
5.90697e-06
5.87923e-06
5.86263e-06
5.83585e-06
5.8191e-06
5.79317e-06
5.77627e-06
5.75122e-06
5.73413e-06
5.72175e-06
5.70136e-06
5.7481e-06
6.13641e-06
6.09795e-06
6.08186e-06
6.05077e-06
6.03458e-06
6.00443e-06
5.98816e-06
5.95885e-06
5.94249e-06
5.91412e-06
5.89757e-06
5.87018e-06
5.85343e-06
5.827e-06
5.81001e-06
5.78463e-06
5.76733e-06
5.75481e-06
5.73416e-06
5.7752e-06
6.16743e-06
6.12852e-06
6.11237e-06
6.08087e-06
6.06469e-06
6.03388e-06
6.01776e-06
5.98789e-06
5.97159e-06
5.94273e-06
5.92621e-06
5.89836e-06
5.8816e-06
5.85479e-06
5.83773e-06
5.81195e-06
5.79459e-06
5.7819e-06
5.76106e-06
5.80071e-06
6.19663e-06
6.15725e-06
6.141e-06
6.10911e-06
6.0927e-06
6.06182e-06
6.04527e-06
6.01536e-06
5.99869e-06
5.96979e-06
5.95292e-06
5.92501e-06
5.90794e-06
5.88097e-06
5.86369e-06
5.83775e-06
5.82016e-06
5.80737e-06
5.78635e-06
5.82695e-06
6.22666e-06
6.18669e-06
6.17039e-06
6.13836e-06
6.12151e-06
6.09066e-06
6.07361e-06
6.04378e-06
6.02659e-06
5.99764e-06
5.98039e-06
5.95245e-06
5.93496e-06
5.90802e-06
5.89033e-06
5.86434e-06
5.84646e-06
5.8336e-06
5.81236e-06
5.85532e-06
6.25904e-06
6.21907e-06
6.20228e-06
6.16989e-06
6.15309e-06
6.12154e-06
6.10476e-06
6.07409e-06
6.05725e-06
6.02764e-06
6.01047e-06
5.982e-06
5.96453e-06
5.93711e-06
5.9194e-06
5.89299e-06
5.87505e-06
5.86202e-06
5.84059e-06
5.88718e-06
6.29558e-06
6.25487e-06
6.23804e-06
6.20522e-06
6.18811e-06
6.15645e-06
6.13913e-06
6.10853e-06
6.09106e-06
6.06142e-06
6.04384e-06
6.01515e-06
5.9974e-06
5.9698e-06
5.95179e-06
5.92521e-06
5.90696e-06
5.89382e-06
5.87214e-06
5.92344e-06
6.3371e-06
6.29592e-06
6.27886e-06
6.24559e-06
6.2284e-06
6.19605e-06
6.17879e-06
6.14742e-06
6.13005e-06
6.09978e-06
6.08214e-06
6.05294e-06
6.03511e-06
6.00695e-06
5.98886e-06
5.96184e-06
5.94341e-06
5.9301e-06
5.90814e-06
5.96552e-06
6.38534e-06
6.34374e-06
6.32622e-06
6.29241e-06
6.27498e-06
6.24201e-06
6.22462e-06
6.19276e-06
6.17517e-06
6.14435e-06
6.12658e-06
6.09683e-06
6.07879e-06
6.05018e-06
6.03185e-06
6.00435e-06
5.98572e-06
5.97218e-06
5.94992e-06
6.01475e-06
6.44186e-06
6.39943e-06
6.38171e-06
6.34718e-06
6.32953e-06
6.29589e-06
6.27826e-06
6.2457e-06
6.2279e-06
6.19644e-06
6.17846e-06
6.14818e-06
6.1298e-06
6.10076e-06
6.08203e-06
6.05412e-06
6.03513e-06
6.02137e-06
5.99874e-06
6.07009e-06
6.50511e-06
6.46176e-06
6.44377e-06
6.40862e-06
6.39053e-06
6.35651e-06
6.33825e-06
6.30542e-06
6.28689e-06
6.2553e-06
6.23648e-06
6.20605e-06
6.18703e-06
6.15762e-06
6.13844e-06
6.11011e-06
6.09066e-06
6.07668e-06
6.05362e-06
6.12264e-06
6.55325e-06
6.51122e-06
6.49377e-06
6.45987e-06
6.44191e-06
6.40902e-06
6.39072e-06
6.35877e-06
6.34018e-06
6.30909e-06
6.29021e-06
6.26007e-06
6.24081e-06
6.2117e-06
6.19203e-06
6.16386e-06
6.1438e-06
6.12982e-06
6.10642e-06
6.14086e-06
6.1407e-06
6.14071e-06
6.14068e-06
6.14059e-06
6.14064e-06
6.14052e-06
6.14058e-06
6.14051e-06
6.14054e-06
6.14048e-06
6.14051e-06
6.14047e-06
6.14049e-06
6.14047e-06
6.14048e-06
6.14047e-06
6.14047e-06
6.14047e-06
6.14047e-06
)
;

boundaryField
{
    movingWall
    {
        type            nutkWallFunction;
        blending        stepwise;
        value           uniform 0;
    }
    fixedWalls
    {
        type            nutkWallFunction;
        blending        stepwise;
        value           uniform 0;
    }
    frontAndBack
    {
        type            empty;
    }
}


// ************************************************************************* //
