/*--------------------------------*- C++ -*----------------------------------*\
| =========                 |                                                 |
| \\      /  F ield         | OpenFOAM: The Open Source CFD Toolbox           |
|  \\    /   O peration     | Version:  2506                                  |
|   \\  /    A nd           | Website:  www.openfoam.com                      |
|    \\/     M anipulation  |                                                 |
\*---------------------------------------------------------------------------*/
FoamFile
{
    version     2.0;
    format      ascii;
    arch        "LSB;label=32;scalar=64";
    class       volScalarField;
    location    "3.5";
    object      Uy;
}
// * * * * * * * * * * * * * * * * * * * * * * * * * * * * * * * * * * * * * //

dimensions      [0 1 -1 0 0 0 0];

internalField   nonuniform List<scalar> 
400
(
2.25368e-07
-5.12912e-08
1.21463e-08
-2.76947e-09
6.41691e-10
-1.49331e-10
3.35127e-11
-7.98308e-12
1.67112e-12
-4.51877e-13
6.51903e-14
-3.31615e-14
-6.86601e-15
-1.90257e-14
-2.81141e-14
-3.4593e-14
-3.01779e-14
-2.17675e-14
-1.86131e-14
-2.58386e-14
-2.30518e-07
5.241e-08
-1.23894e-08
2.81701e-09
-6.52731e-10
1.49336e-10
-3.47121e-11
7.29835e-12
-2.02466e-12
2.64403e-13
-1.3825e-13
-2.84793e-15
-2.56998e-14
-4.51561e-14
-7.88111e-14
-1.02531e-13
-9.33647e-14
-5.62007e-14
-5.94118e-14
-7.6512e-14
2.40887e-07
-5.4822e-08
1.2976e-08
-2.95871e-09
6.81835e-10
-1.60964e-10
3.44268e-11
-9.06588e-12
1.50435e-12
-5.67761e-13
5.54759e-14
-2.615e-14
-9.86969e-15
-6.18534e-14
-1.17887e-13
-1.58848e-13
-1.46462e-13
-9.1148e-14
-9.48655e-14
-1.23944e-13
-2.55492e-07
5.83183e-08
-1.38507e-08
3.13661e-09
-7.395e-10
1.66237e-10
-3.99506e-11
8.132e-12
-2.3317e-12
3.70246e-13
-7.9453e-14
6.73204e-14
1.12977e-14
-5.65087e-14
-1.42538e-13
-2.03202e-13
-1.91326e-13
-1.15852e-13
-1.25652e-13
-1.67117e-13
2.70968e-07
-6.27137e-08
1.48312e-08
-3.41991e-09
7.9433e-10
-1.86827e-10
4.11076e-11
-1.03345e-11
2.09198e-12
-4.38389e-13
2.56294e-13
1.06061e-13
7.81778e-14
-3.54047e-14
-1.48718e-13
-2.30563e-13
-2.20649e-13
-1.34654e-13
-1.49237e-13
-2.04348e-13
-2.83607e-07
6.64418e-08
-1.5726e-08
3.67175e-09
-8.64174e-10
2.00897e-10
-4.7153e-11
1.08442e-11
-2.32245e-12
8.70524e-13
1.76324e-13
2.79515e-13
1.45226e-13
1.00421e-14
-1.37881e-13
-2.41975e-13
-2.383e-13
-1.42414e-13
-1.65689e-13
-2.34795e-13
2.95424e-07
-6.97364e-08
1.65171e-08
-3.89378e-09
9.19595e-10
-2.16711e-10
5.1197e-11
-1.15454e-11
3.34948e-12
-9.44343e-14
6.52589e-13
3.5294e-13
2.55234e-13
6.48781e-14
-1.09958e-13
-2.36666e-13
-2.40284e-13
-1.42744e-13
-1.7445e-13
-2.57854e-13
-3.06863e-07
7.27989e-08
-1.72458e-08
4.09008e-09
-9.6787e-10
2.30331e-10
-5.34608e-11
1.37714e-11
-2.14608e-12
1.54509e-12
5.27579e-13
5.72124e-13
3.40352e-13
1.36668e-13
-7.11156e-14
-2.17279e-13
-2.31299e-13
-1.34076e-13
-1.75893e-13
-2.73244e-13
3.17967e-07
-7.56609e-08
1.79362e-08
-4.2648e-09
1.01512e-09
-2.39198e-10
5.87235e-11
-1.22824e-11
4.45376e-12
3.00628e-13
1.06426e-12
6.26139e-13
4.61013e-13
2.03177e-13
-2.24914e-14
-1.87388e-13
-2.10869e-13
-1.18893e-13
-1.70836e-13
-2.81121e-13
-3.28839e-07
7.84459e-08
-1.85899e-08
4.43802e-09
-1.05226e-09
2.53027e-10
-5.81094e-11
1.59157e-11
-1.92323e-12
2.09087e-12
8.4595e-13
8.36845e-13
5.31099e-13
2.77044e-13
2.74045e-14
-1.49591e-13
-1.83331e-13
-9.85879e-14
-1.59615e-13
-2.82141e-13
3.39163e-07
-8.10378e-08
1.92144e-08
-4.58813e-09
1.09534e-09
-2.58014e-10
6.44571e-11
-1.29166e-11
5.2428e-12
5.89222e-13
1.36827e-12
8.38118e-13
6.2972e-13
3.32475e-13
7.87158e-14
-1.08894e-13
-1.50695e-13
-7.42268e-14
-1.44264e-13
-2.768e-13
-3.49036e-07
8.35236e-08
-1.97951e-08
4.74164e-09
-1.1254e-09
2.71814e-10
-6.21448e-11
1.74765e-11
-1.85463e-12
2.43403e-12
1.03805e-12
1.0049e-12
6.60661e-13
3.86778e-13
1.22221e-13
-6.69759e-14
-1.15742e-13
-4.93589e-14
-1.24435e-13
-2.65801e-13
3.58065e-07
-8.57562e-08
2.03341e-08
-4.86676e-09
1.1635e-09
-2.74123e-10
6.89618e-11
-1.36236e-11
5.71995e-12
6.94719e-13
1.51043e-12
9.33837e-13
7.15681e-13
4.12873e-13
1.59644e-13
-2.95667e-14
-8.16362e-14
-2.29182e-14
-1.0362e-13
-2.49416e-13
-3.66413e-07
8.78378e-08
-2.08183e-08
4.99579e-09
-1.18649e-09
2.87095e-10
-6.56237e-11
1.85399e-11
-1.97665e-12
2.54976e-12
1.06144e-12
1.03776e-12
6.91932e-13
4.3203e-13
1.82396e-13
3.78507e-15
-4.95537e-14
-1.45974e-15
-8.10399e-14
-2.28164e-13
3.73682e-07
-8.96091e-08
2.12476e-08
-5.09147e-09
1.21805e-09
-2.87085e-10
7.23023e-11
-1.43803e-11
5.88592e-12
5.93523e-13
1.46401e-12
8.84073e-13
6.90087e-13
4.1684e-13
1.94719e-13
2.74387e-14
-2.41819e-14
1.77936e-14
-6.12447e-14
-2.02257e-13
-3.80079e-07
9.11837e-08
-2.16102e-08
5.19003e-09
-1.23269e-09
2.98434e-10
-6.83535e-11
1.90862e-11
-2.29491e-12
2.41501e-12
8.94415e-13
9.127e-13
6.0357e-13
3.9176e-13
1.87834e-13
4.2407e-14
-4.71155e-15
2.69084e-14
-4.3268e-14
-1.72167e-13
3.85256e-07
-9.24366e-08
2.19182e-08
-5.25387e-09
1.25764e-09
-2.96455e-10
7.4391e-11
-1.52318e-11
5.68081e-12
2.3743e-13
1.1918e-12
6.59694e-13
5.29924e-13
3.23417e-13
1.63844e-13
4.32412e-14
6.27347e-15
3.47567e-14
-2.79818e-14
-1.39567e-13
-3.89444e-07
9.34545e-08
-2.21438e-08
5.32258e-09
-1.2637e-09
3.05883e-10
-7.06493e-11
1.90132e-11
-2.93053e-12
1.98337e-12
5.07192e-13
6.21916e-13
3.92908e-13
2.66226e-13
1.38154e-13
5.01099e-14
2.06732e-14
3.69409e-14
-1.22985e-14
-1.05331e-13
3.92302e-07
-9.4115e-08
2.23122e-08
-5.34288e-09
1.27789e-09
-3.01612e-10
7.43764e-11
-1.62635e-11
4.97906e-12
-3.71683e-13
7.09987e-13
2.91997e-13
2.64164e-13
1.56975e-13
8.50683e-14
2.84243e-14
1.21116e-14
3.44988e-14
6.89555e-15
-6.76946e-14
-3.9458e-07
9.51561e-08
-2.25609e-08
5.4429e-09
-1.2999e-09
3.12623e-10
-7.47519e-11
1.84246e-11
-4.10155e-12
1.25002e-12
-1.15616e-13
1.61647e-13
5.26273e-14
4.34886e-14
1.54677e-14
2.21958e-16
-6.31496e-16
1.45987e-14
8.90305e-15
-2.35419e-14
)
;

boundaryField
{
    movingWall
    {
        type            calculated;
        value           uniform -0;
    }
    fixedWalls
    {
        type            calculated;
        value           uniform -0;
    }
    frontAndBack
    {
        type            empty;
    }
}


// ************************************************************************* //
