/*--------------------------------*- C++ -*----------------------------------*\
| =========                 |                                                 |
| \\      /  F ield         | OpenFOAM: The Open Source CFD Toolbox           |
|  \\    /   O peration     | Version:  2506                                  |
|   \\  /    A nd           | Website:  www.openfoam.com                      |
|    \\/     M anipulation  |                                                 |
\*---------------------------------------------------------------------------*/
FoamFile
{
    version     2.0;
    format      ascii;
    arch        "LSB;label=32;scalar=64";
    class       volVectorField;
    location    "3.5";
    object      UzeroGrad;
}
// * * * * * * * * * * * * * * * * * * * * * * * * * * * * * * * * * * * * * //

dimensions      [0 1 -1 0 0 0 0];

internalField   nonuniform List<vector> 
400
(
(-1 2.25368e-07 0)
(-1 -5.12912e-08 0)
(-1 1.21463e-08 0)
(-1 -2.76947e-09 0)
(-1 6.41691e-10 0)
(-1 -1.49331e-10 0)
(-1 3.35127e-11 0)
(-1 -7.98308e-12 0)
(-1 1.67112e-12 0)
(-1 -4.51877e-13 0)
(-1 6.51903e-14 0)
(-1 -3.31615e-14 0)
(-1 -6.86601e-15 0)
(-1 -1.90257e-14 0)
(-1 -2.81141e-14 0)
(-1 -3.4593e-14 0)
(-1 -3.01779e-14 0)
(-1 -2.17675e-14 0)
(-1 -1.86131e-14 0)
(-1 -2.58386e-14 0)
(-1 -2.30518e-07 0)
(-1 5.241e-08 0)
(-1 -1.23894e-08 0)
(-1 2.81701e-09 0)
(-1 -6.52731e-10 0)
(-1 1.49336e-10 0)
(-1 -3.47121e-11 0)
(-1 7.29835e-12 0)
(-1 -2.02466e-12 0)
(-1 2.64403e-13 0)
(-1 -1.3825e-13 0)
(-1 -2.84793e-15 0)
(-1 -2.56998e-14 0)
(-1 -4.51561e-14 0)
(-1 -7.88111e-14 0)
(-1 -1.02531e-13 0)
(-1 -9.33647e-14 0)
(-1 -5.62007e-14 0)
(-1 -5.94118e-14 0)
(-1 -7.6512e-14 0)
(-1 2.40887e-07 0)
(-1 -5.4822e-08 0)
(-1 1.2976e-08 0)
(-1 -2.95871e-09 0)
(-1 6.81835e-10 0)
(-1 -1.60964e-10 0)
(-1 3.44268e-11 0)
(-1 -9.06588e-12 0)
(-1 1.50435e-12 0)
(-1 -5.67761e-13 0)
(-1 5.54759e-14 0)
(-1 -2.615e-14 0)
(-1 -9.86969e-15 0)
(-1 -6.18534e-14 0)
(-1 -1.17887e-13 0)
(-1 -1.58848e-13 0)
(-1 -1.46462e-13 0)
(-1 -9.1148e-14 0)
(-1 -9.48655e-14 0)
(-1 -1.23944e-13 0)
(-1 -2.55492e-07 0)
(-1 5.83183e-08 0)
(-1 -1.38507e-08 0)
(-1 3.13661e-09 0)
(-1 -7.395e-10 0)
(-1 1.66237e-10 0)
(-1 -3.99506e-11 0)
(-1 8.132e-12 0)
(-1 -2.3317e-12 0)
(-1 3.70246e-13 0)
(-1 -7.9453e-14 0)
(-1 6.73204e-14 0)
(-1 1.12977e-14 0)
(-1 -5.65087e-14 0)
(-1 -1.42538e-13 0)
(-1 -2.03202e-13 0)
(-1 -1.91326e-13 0)
(-1 -1.15852e-13 0)
(-1 -1.25652e-13 0)
(-1 -1.67117e-13 0)
(-1 2.70968e-07 0)
(-1 -6.27137e-08 0)
(-1 1.48312e-08 0)
(-1 -3.41991e-09 0)
(-1 7.9433e-10 0)
(-1 -1.86827e-10 0)
(-1 4.11076e-11 0)
(-1 -1.03345e-11 0)
(-1 2.09198e-12 0)
(-1 -4.38389e-13 0)
(-1 2.56294e-13 0)
(-1 1.06061e-13 0)
(-1 7.81778e-14 0)
(-1 -3.54047e-14 0)
(-1 -1.48718e-13 0)
(-1 -2.30563e-13 0)
(-1 -2.20649e-13 0)
(-1 -1.34654e-13 0)
(-1 -1.49237e-13 0)
(-1 -2.04348e-13 0)
(-1 -2.83607e-07 0)
(-1 6.64418e-08 0)
(-1 -1.5726e-08 0)
(-1 3.67175e-09 0)
(-1 -8.64174e-10 0)
(-1 2.00897e-10 0)
(-1 -4.7153e-11 0)
(-1 1.08442e-11 0)
(-1 -2.32245e-12 0)
(-1 8.70524e-13 0)
(-1 1.76324e-13 0)
(-1 2.79515e-13 0)
(-1 1.45226e-13 0)
(-1 1.00421e-14 0)
(-1 -1.37881e-13 0)
(-1 -2.41975e-13 0)
(-1 -2.383e-13 0)
(-1 -1.42414e-13 0)
(-1 -1.65689e-13 0)
(-1 -2.34795e-13 0)
(-1 2.95424e-07 0)
(-1 -6.97364e-08 0)
(-1 1.65171e-08 0)
(-1 -3.89378e-09 0)
(-1 9.19595e-10 0)
(-1 -2.16711e-10 0)
(-1 5.1197e-11 0)
(-1 -1.15454e-11 0)
(-1 3.34948e-12 0)
(-1 -9.44343e-14 0)
(-1 6.52589e-13 0)
(-1 3.5294e-13 0)
(-1 2.55234e-13 0)
(-1 6.48781e-14 0)
(-1 -1.09958e-13 0)
(-1 -2.36666e-13 0)
(-1 -2.40284e-13 0)
(-1 -1.42744e-13 0)
(-1 -1.7445e-13 0)
(-1 -2.57854e-13 0)
(-1 -3.06863e-07 0)
(-1 7.27989e-08 0)
(-1 -1.72458e-08 0)
(-1 4.09008e-09 0)
(-1 -9.6787e-10 0)
(-1 2.30331e-10 0)
(-1 -5.34608e-11 0)
(-1 1.37714e-11 0)
(-1 -2.14608e-12 0)
(-1 1.54509e-12 0)
(-1 5.27579e-13 0)
(-1 5.72124e-13 0)
(-1 3.40352e-13 0)
(-1 1.36668e-13 0)
(-1 -7.11156e-14 0)
(-1 -2.17279e-13 0)
(-1 -2.31299e-13 0)
(-1 -1.34076e-13 0)
(-1 -1.75893e-13 0)
(-1 -2.73244e-13 0)
(-1 3.17967e-07 0)
(-1 -7.56609e-08 0)
(-1 1.79362e-08 0)
(-1 -4.2648e-09 0)
(-1 1.01512e-09 0)
(-1 -2.39198e-10 0)
(-1 5.87235e-11 0)
(-1 -1.22824e-11 0)
(-1 4.45376e-12 0)
(-1 3.00628e-13 0)
(-1 1.06426e-12 0)
(-1 6.26139e-13 0)
(-1 4.61013e-13 0)
(-1 2.03177e-13 0)
(-1 -2.24914e-14 0)
(-1 -1.87388e-13 0)
(-1 -2.10869e-13 0)
(-1 -1.18893e-13 0)
(-1 -1.70836e-13 0)
(-1 -2.81121e-13 0)
(-1 -3.28839e-07 0)
(-1 7.84459e-08 0)
(-1 -1.85899e-08 0)
(-1 4.43802e-09 0)
(-1 -1.05226e-09 0)
(-1 2.53027e-10 0)
(-1 -5.81094e-11 0)
(-1 1.59157e-11 0)
(-1 -1.92323e-12 0)
(-1 2.09087e-12 0)
(-1 8.4595e-13 0)
(-1 8.36845e-13 0)
(-1 5.31099e-13 0)
(-1 2.77044e-13 0)
(-1 2.74045e-14 0)
(-1 -1.49591e-13 0)
(-1 -1.83331e-13 0)
(-1 -9.85879e-14 0)
(-1 -1.59615e-13 0)
(-1 -2.82141e-13 0)
(-1 3.39163e-07 0)
(-1 -8.10378e-08 0)
(-1 1.92144e-08 0)
(-1 -4.58813e-09 0)
(-1 1.09534e-09 0)
(-1 -2.58014e-10 0)
(-1 6.44571e-11 0)
(-1 -1.29166e-11 0)
(-1 5.2428e-12 0)
(-1 5.89222e-13 0)
(-1 1.36827e-12 0)
(-1 8.38118e-13 0)
(-1 6.2972e-13 0)
(-1 3.32475e-13 0)
(-1 7.87158e-14 0)
(-1 -1.08894e-13 0)
(-1 -1.50695e-13 0)
(-1 -7.42268e-14 0)
(-1 -1.44264e-13 0)
(-1 -2.768e-13 0)
(-1 -3.49036e-07 0)
(-1 8.35236e-08 0)
(-1 -1.97951e-08 0)
(-1 4.74164e-09 0)
(-1 -1.1254e-09 0)
(-1 2.71814e-10 0)
(-1 -6.21448e-11 0)
(-1 1.74765e-11 0)
(-1 -1.85463e-12 0)
(-1 2.43403e-12 0)
(-1 1.03805e-12 0)
(-1 1.0049e-12 0)
(-1 6.60661e-13 0)
(-1 3.86778e-13 0)
(-1 1.22221e-13 0)
(-1 -6.69759e-14 0)
(-1 -1.15742e-13 0)
(-1 -4.93589e-14 0)
(-1 -1.24435e-13 0)
(-1 -2.65801e-13 0)
(-1 3.58065e-07 0)
(-1 -8.57562e-08 0)
(-1 2.03341e-08 0)
(-1 -4.86676e-09 0)
(-1 1.1635e-09 0)
(-1 -2.74123e-10 0)
(-1 6.89618e-11 0)
(-1 -1.36236e-11 0)
(-1 5.71995e-12 0)
(-1 6.94719e-13 0)
(-1 1.51043e-12 0)
(-1 9.33837e-13 0)
(-1 7.15681e-13 0)
(-1 4.12873e-13 0)
(-1 1.59644e-13 0)
(-1 -2.95667e-14 0)
(-1 -8.16362e-14 0)
(-1 -2.29182e-14 0)
(-1 -1.0362e-13 0)
(-1 -2.49416e-13 0)
(-1 -3.66413e-07 0)
(-1 8.78378e-08 0)
(-1 -2.08183e-08 0)
(-1 4.99579e-09 0)
(-1 -1.18649e-09 0)
(-1 2.87095e-10 0)
(-1 -6.56237e-11 0)
(-1 1.85399e-11 0)
(-1 -1.97665e-12 0)
(-1 2.54976e-12 0)
(-1 1.06144e-12 0)
(-1 1.03776e-12 0)
(-1 6.91932e-13 0)
(-1 4.3203e-13 0)
(-1 1.82396e-13 0)
(-1 3.78507e-15 0)
(-1 -4.95537e-14 0)
(-1 -1.45974e-15 0)
(-1 -8.10399e-14 0)
(-1 -2.28164e-13 0)
(-1 3.73682e-07 0)
(-1 -8.96091e-08 0)
(-1 2.12476e-08 0)
(-1 -5.09147e-09 0)
(-1 1.21805e-09 0)
(-1 -2.87085e-10 0)
(-1 7.23023e-11 0)
(-1 -1.43803e-11 0)
(-1 5.88592e-12 0)
(-1 5.93523e-13 0)
(-1 1.46401e-12 0)
(-1 8.84073e-13 0)
(-1 6.90087e-13 0)
(-1 4.1684e-13 0)
(-1 1.94719e-13 0)
(-1 2.74387e-14 0)
(-1 -2.41819e-14 0)
(-1 1.77936e-14 0)
(-1 -6.12447e-14 0)
(-1 -2.02257e-13 0)
(-1 -3.80079e-07 0)
(-1 9.11837e-08 0)
(-1 -2.16102e-08 0)
(-1 5.19003e-09 0)
(-1 -1.23269e-09 0)
(-1 2.98434e-10 0)
(-1 -6.83535e-11 0)
(-1 1.90862e-11 0)
(-1 -2.29491e-12 0)
(-1 2.41501e-12 0)
(-1 8.94415e-13 0)
(-1 9.127e-13 0)
(-1 6.0357e-13 0)
(-1 3.9176e-13 0)
(-1 1.87834e-13 0)
(-1 4.2407e-14 0)
(-1 -4.71155e-15 0)
(-1 2.69084e-14 0)
(-1 -4.3268e-14 0)
(-1 -1.72167e-13 0)
(-1 3.85256e-07 0)
(-1 -9.24366e-08 0)
(-1 2.19182e-08 0)
(-1 -5.25387e-09 0)
(-1 1.25764e-09 0)
(-1 -2.96455e-10 0)
(-1 7.4391e-11 0)
(-1 -1.52318e-11 0)
(-1 5.68081e-12 0)
(-1 2.3743e-13 0)
(-1 1.1918e-12 0)
(-1 6.59694e-13 0)
(-1 5.29924e-13 0)
(-1 3.23417e-13 0)
(-1 1.63844e-13 0)
(-1 4.32412e-14 0)
(-1 6.27347e-15 0)
(-1 3.47567e-14 0)
(-1 -2.79818e-14 0)
(-1 -1.39567e-13 0)
(-1 -3.89444e-07 0)
(-1 9.34545e-08 0)
(-1 -2.21438e-08 0)
(-1 5.32258e-09 0)
(-1 -1.2637e-09 0)
(-1 3.05883e-10 0)
(-1 -7.06493e-11 0)
(-1 1.90132e-11 0)
(-1 -2.93053e-12 0)
(-1 1.98337e-12 0)
(-1 5.07192e-13 0)
(-1 6.21916e-13 0)
(-1 3.92908e-13 0)
(-1 2.66226e-13 0)
(-1 1.38154e-13 0)
(-1 5.01099e-14 0)
(-1 2.06732e-14 0)
(-1 3.69409e-14 0)
(-1 -1.22985e-14 0)
(-1 -1.05331e-13 0)
(-1 3.92302e-07 0)
(-1 -9.4115e-08 0)
(-1 2.23122e-08 0)
(-1 -5.34288e-09 0)
(-1 1.27789e-09 0)
(-1 -3.01612e-10 0)
(-1 7.43764e-11 0)
(-1 -1.62635e-11 0)
(-1 4.97906e-12 0)
(-1 -3.71683e-13 0)
(-1 7.09987e-13 0)
(-1 2.91997e-13 0)
(-1 2.64164e-13 0)
(-1 1.56975e-13 0)
(-1 8.50683e-14 0)
(-1 2.84243e-14 0)
(-1 1.21116e-14 0)
(-1 3.44988e-14 0)
(-1 6.89555e-15 0)
(-1 -6.76946e-14 0)
(-1 -3.9458e-07 0)
(-1 9.51561e-08 0)
(-1 -2.25609e-08 0)
(-1 5.4429e-09 0)
(-1 -1.2999e-09 0)
(-1 3.12623e-10 0)
(-1 -7.47519e-11 0)
(-1 1.84246e-11 0)
(-1 -4.10155e-12 0)
(-1 1.25002e-12 0)
(-1 -1.15616e-13 0)
(-1 1.61647e-13 0)
(-1 5.26273e-14 0)
(-1 4.34886e-14 0)
(-1 1.54677e-14 0)
(-1 2.21958e-16 0)
(-1 -6.31496e-16 0)
(-1 1.45987e-14 0)
(-1 8.90305e-15 0)
(-1 -2.35419e-14 0)
)
;

boundaryField
{
    movingWall
    {
        type            zeroGradient;
    }
    fixedWalls
    {
        type            zeroGradient;
    }
    frontAndBack
    {
        type            empty;
    }
}


// ************************************************************************* //
