/*--------------------------------*- C++ -*----------------------------------*\
| =========                 |                                                 |
| \\      /  F ield         | OpenFOAM: The Open Source CFD Toolbox           |
|  \\    /   O peration     | Version:  2506                                  |
|   \\  /    A nd           | Website:  www.openfoam.com                      |
|    \\/     M anipulation  |                                                 |
\*---------------------------------------------------------------------------*/
FoamFile
{
    version     2.0;
    format      ascii;
    arch        "LSB;label=32;scalar=64";
    class       volVectorField;
    location    "3.5";
    object      vorticityField;
}
// * * * * * * * * * * * * * * * * * * * * * * * * * * * * * * * * * * * * * //

dimensions      [0 0 -1 0 0 0 0];

internalField   nonuniform List<vector> 
400
(
(0 -0 1.92705e-05)
(0 -0 -2.16912e-05)
(0 -0 5.01732e-06)
(0 -0 -1.18237e-06)
(0 -0 2.74426e-07)
(0 -0 -6.36276e-08)
(0 -0 1.52232e-08)
(0 -0 -3.2932e-09)
(0 -0 9.33207e-10)
(0 -0 -9.27757e-11)
(0 -0 1.26168e-10)
(0 -0 6.62491e-11)
(0 -0 7.49225e-11)
(0 -0 6.65323e-11)
(0 -0 5.82099e-11)
(0 -0 4.61433e-11)
(0 -0 3.38899e-11)
(0 -0 2.46837e-11)
(0 -0 1.71841e-11)
(0 -0 8.07725e-12)
(0 -0 -2.14659e-05)
(0 -0 2.25258e-05)
(0 -0 -5.27509e-06)
(0 -0 1.23497e-06)
(0 -0 -2.89029e-07)
(0 -0 6.76288e-08)
(0 -0 -1.58163e-08)
(0 -0 3.69611e-09)
(0 -0 -8.70958e-10)
(0 -0 1.92002e-10)
(0 -0 -5.98204e-11)
(0 -0 -2.81253e-12)
(0 -0 -1.7431e-11)
(0 -0 -1.43371e-11)
(0 -0 -1.24324e-11)
(0 -0 -6.14454e-12)
(0 -0 1.51593e-12)
(0 -0 1.66057e-12)
(0 -0 -2.97981e-12)
(0 -0 1.33755e-11)
(0 -0 2.21773e-05)
(0 -0 -2.34708e-05)
(0 -0 5.49386e-06)
(0 -0 -1.2855e-06)
(0 -0 3.00771e-07)
(0 -0 -7.03212e-08)
(0 -0 1.64617e-08)
(0 -0 -3.84023e-09)
(0 -0 8.95673e-10)
(0 -0 -2.20538e-10)
(0 -0 3.245e-11)
(0 -0 -3.1417e-11)
(0 -0 -1.98605e-11)
(0 -0 -2.38935e-11)
(0 -0 -1.93759e-11)
(0 -0 -9.74214e-12)
(0 -0 2.59577e-12)
(0 -0 2.72017e-12)
(0 -0 -4.96007e-12)
(0 -0 2.15828e-11)
(0 -0 -2.30059e-05)
(0 -0 2.48087e-05)
(0 -0 -5.81921e-06)
(0 -0 1.36423e-06)
(0 -0 -3.19622e-07)
(0 -0 7.48887e-08)
(0 -0 -1.7509e-08)
(0 -0 4.10848e-09)
(0 -0 -9.63634e-10)
(0 -0 2.09991e-10)
(0 -0 -7.49075e-11)
(0 -0 -1.46419e-11)
(0 -0 -3.3308e-11)
(0 -0 -3.09147e-11)
(0 -0 -2.67582e-11)
(0 -0 -1.33628e-11)
(0 -0 3.25975e-12)
(0 -0 3.2877e-12)
(0 -0 -7.15937e-12)
(0 -0 2.88162e-11)
(0 -0 2.32428e-05)
(0 -0 -2.61255e-05)
(0 -0 6.16108e-06)
(0 -0 -1.45109e-06)
(0 -0 3.41475e-07)
(0 -0 -8.02317e-08)
(0 -0 1.88762e-08)
(0 -0 -4.41929e-09)
(0 -0 1.03363e-09)
(0 -0 -2.61577e-10)
(0 -0 2.95897e-11)
(0 -0 -4.64617e-11)
(0 -0 -3.42585e-11)
(0 -0 -3.9576e-11)
(0 -0 -3.24449e-11)
(0 -0 -1.6707e-11)
(0 -0 3.68202e-12)
(0 -0 3.5091e-12)
(0 -0 -9.40885e-12)
(0 -0 3.47351e-11)
(0 -0 -2.3074e-05)
(0 -0 2.70882e-05)
(0 -0 -6.40962e-06)
(0 -0 1.51651e-06)
(0 -0 -3.58736e-07)
(0 -0 8.49044e-08)
(0 -0 -2.00439e-08)
(0 -0 4.74934e-09)
(0 -0 -1.12574e-09)
(0 -0 2.42694e-10)
(0 -0 -9.4229e-11)
(0 -0 -2.36825e-11)
(0 -0 -4.67882e-11)
(0 -0 -4.41672e-11)
(0 -0 -3.80766e-11)
(0 -0 -1.93931e-11)
(0 -0 3.8304e-12)
(0 -0 3.46645e-12)
(0 -0 -1.18673e-11)
(0 -0 3.95334e-11)
(0 -0 2.30512e-05)
(0 -0 -2.79952e-05)
(0 -0 6.63144e-06)
(0 -0 -1.57076e-06)
(0 -0 3.72194e-07)
(0 -0 -8.81362e-08)
(0 -0 2.09154e-08)
(0 -0 -4.94196e-09)
(0 -0 1.16481e-09)
(0 -0 -3.01917e-10)
(0 -0 3.01278e-11)
(0 -0 -5.81128e-11)
(0 -0 -4.4256e-11)
(0 -0 -5.06138e-11)
(0 -0 -4.1918e-11)
(0 -0 -2.20044e-11)
(0 -0 3.59168e-12)
(0 -0 2.92427e-12)
(0 -0 -1.42757e-11)
(0 -0 4.26341e-11)
(0 -0 -2.33163e-05)
(0 -0 2.89478e-05)
(0 -0 -6.8643e-06)
(0 -0 1.62755e-06)
(0 -0 -3.85822e-07)
(0 -0 9.15259e-08)
(0 -0 -2.16691e-08)
(0 -0 5.15145e-09)
(0 -0 -1.23008e-09)
(0 -0 2.63111e-10)
(0 -0 -1.07407e-10)
(0 -0 -2.94021e-11)
(0 -0 -5.51465e-11)
(0 -0 -5.2287e-11)
(0 -0 -4.53152e-11)
(0 -0 -2.37975e-11)
(0 -0 3.06196e-12)
(0 -0 2.01691e-12)
(0 -0 -1.65189e-11)
(0 -0 4.42903e-11)
(0 -0 2.37284e-05)
(0 -0 -2.99023e-05)
(0 -0 7.09536e-06)
(0 -0 -1.6834e-06)
(0 -0 3.99518e-07)
(0 -0 -9.47679e-08)
(0 -0 2.25249e-08)
(0 -0 -5.33585e-09)
(0 -0 1.25654e-09)
(0 -0 -3.29301e-10)
(0 -0 3.07893e-11)
(0 -0 -6.4553e-11)
(0 -0 -4.92621e-11)
(0 -0 -5.62109e-11)
(0 -0 -4.68086e-11)
(0 -0 -2.52887e-11)
(0 -0 2.40436e-12)
(0 -0 8.86163e-13)
(0 -0 -1.86623e-11)
(0 -0 4.46807e-11)
(0 -0 -2.42259e-05)
(0 -0 3.08621e-05)
(0 -0 -7.32788e-06)
(0 -0 1.73976e-06)
(0 -0 -4.13009e-07)
(0 -0 9.81139e-08)
(0 -0 -2.32707e-08)
(0 -0 5.53565e-09)
(0 -0 -1.327e-09)
(0 -0 2.82611e-10)
(0 -0 -1.15807e-10)
(0 -0 -3.06719e-11)
(0 -0 -5.80943e-11)
(0 -0 -5.4896e-11)
(0 -0 -4.79761e-11)
(0 -0 -2.58712e-11)
(0 -0 1.65801e-12)
(0 -0 -2.57588e-13)
(0 -0 -2.06322e-11)
(0 -0 4.37148e-11)
(0 -0 2.47516e-05)
(0 -0 -3.17831e-05)
(0 -0 7.55029e-06)
(0 -0 -1.7934e-06)
(0 -0 4.26098e-07)
(0 -0 -1.01196e-07)
(0 -0 2.40703e-08)
(0 -0 -5.71354e-09)
(0 -0 1.34389e-09)
(0 -0 -3.52867e-10)
(0 -0 3.50269e-11)
(0 -0 -6.61568e-11)
(0 -0 -4.89651e-11)
(0 -0 -5.63202e-11)
(0 -0 -4.71185e-11)
(0 -0 -2.61666e-11)
(0 -0 8.64609e-13)
(0 -0 -1.49815e-12)
(0 -0 -2.2236e-11)
(0 -0 4.16185e-11)
(0 -0 -2.52813e-05)
(0 -0 3.26715e-05)
(0 -0 -7.76456e-06)
(0 -0 1.8451e-06)
(0 -0 -4.38425e-07)
(0 -0 1.04235e-07)
(0 -0 -2.47532e-08)
(0 -0 5.88826e-09)
(0 -0 -1.41461e-09)
(0 -0 3.03173e-10)
(0 -0 -1.19576e-10)
(0 -0 -2.73033e-11)
(0 -0 -5.55777e-11)
(0 -0 -5.20821e-11)
(0 -0 -4.59175e-11)
(0 -0 -2.53143e-11)
(0 -0 3.79347e-13)
(0 -0 -2.38714e-12)
(0 -0 -2.35144e-11)
(0 -0 3.85899e-11)
(0 -0 2.57987e-05)
(0 -0 -3.34894e-05)
(0 -0 7.96132e-06)
(0 -0 -1.89236e-06)
(0 -0 4.49901e-07)
(0 -0 -1.06931e-07)
(0 -0 2.54425e-08)
(0 -0 -6.04807e-09)
(0 -0 1.42275e-09)
(0 -0 -3.7059e-10)
(0 -0 4.29667e-11)
(0 -0 -6.26429e-11)
(0 -0 -4.32602e-11)
(0 -0 -5.08874e-11)
(0 -0 -4.26447e-11)
(0 -0 -2.39653e-11)
(0 -0 1.22744e-13)
(0 -0 -3.25552e-12)
(0 -0 -2.41948e-11)
(0 -0 3.487e-11)
(0 -0 -2.62793e-05)
(0 -0 3.42468e-05)
(0 -0 -8.14329e-06)
(0 -0 1.93609e-06)
(0 -0 -4.60299e-07)
(0 -0 1.0948e-07)
(0 -0 -2.60204e-08)
(0 -0 6.18885e-09)
(0 -0 -1.48696e-09)
(0 -0 3.23921e-10)
(0 -0 -1.18213e-10)
(0 -0 -1.93595e-11)
(0 -0 -4.79967e-11)
(0 -0 -4.40147e-11)
(0 -0 -3.91653e-11)
(0 -0 -2.15957e-11)
(0 -0 3.4288e-13)
(0 -0 -3.44678e-12)
(0 -0 -2.41612e-11)
(0 -0 3.04325e-11)
(0 -0 2.67419e-05)
(0 -0 -3.49152e-05)
(0 -0 8.30354e-06)
(0 -0 -1.97446e-06)
(0 -0 4.69578e-07)
(0 -0 -1.11659e-07)
(0 -0 2.65695e-08)
(0 -0 -6.32074e-09)
(0 -0 1.48965e-09)
(0 -0 -3.81123e-10)
(0 -0 5.41814e-11)
(0 -0 -5.46779e-11)
(0 -0 -3.31708e-11)
(0 -0 -4.07548e-11)
(0 -0 -3.39799e-11)
(0 -0 -1.91525e-11)
(0 -0 3.63641e-13)
(0 -0 -3.57075e-12)
(0 -0 -2.29808e-11)
(0 -0 2.58894e-11)
(0 -0 -2.71579e-05)
(0 -0 3.55065e-05)
(0 -0 -8.44524e-06)
(0 -0 2.00842e-06)
(0 -0 -4.77641e-07)
(0 -0 1.13625e-07)
(0 -0 -2.70195e-08)
(0 -0 6.42594e-09)
(0 -0 -1.54154e-09)
(0 -0 3.43408e-10)
(0 -0 -1.13097e-10)
(0 -0 -8.75578e-12)
(0 -0 -3.70507e-11)
(0 -0 -3.23849e-11)
(0 -0 -2.9433e-11)
(0 -0 -1.61917e-11)
(0 -0 1.84865e-13)
(0 -0 -3.55749e-12)
(0 -0 -2.09104e-11)
(0 -0 2.11911e-11)
(0 -0 2.7474e-05)
(0 -0 -3.59775e-05)
(0 -0 8.55735e-06)
(0 -0 -2.03507e-06)
(0 -0 4.84029e-07)
(0 -0 -1.15117e-07)
(0 -0 2.73875e-08)
(0 -0 -6.5183e-09)
(0 -0 1.53904e-09)
(0 -0 -3.86154e-10)
(0 -0 6.56723e-11)
(0 -0 -4.50454e-11)
(0 -0 -2.15117e-11)
(0 -0 -2.89102e-11)
(0 -0 -2.4006e-11)
(0 -0 -1.39139e-11)
(0 -0 -6.58716e-13)
(0 -0 -4.04895e-12)
(0 -0 -1.81642e-11)
(0 -0 1.66465e-11)
(0 -0 -2.78524e-05)
(0 -0 3.63907e-05)
(0 -0 -8.65629e-06)
(0 -0 2.05874e-06)
(0 -0 -4.89646e-07)
(0 -0 1.16477e-07)
(0 -0 -2.77034e-08)
(0 -0 6.58875e-09)
(0 -0 -1.57537e-09)
(0 -0 3.61092e-10)
(0 -0 -1.0408e-10)
(0 -0 4.50935e-12)
(0 -0 -2.3182e-11)
(0 -0 -1.80215e-11)
(0 -0 -1.7058e-11)
(0 -0 -8.98333e-12)
(0 -0 7.70192e-13)
(0 -0 -2.70087e-12)
(0 -0 -1.51216e-11)
(0 -0 1.14648e-11)
(0 -0 2.80301e-05)
(0 -0 -3.66786e-05)
(0 -0 8.73194e-06)
(0 -0 -2.07845e-06)
(0 -0 4.94764e-07)
(0 -0 -1.17782e-07)
(0 -0 2.80428e-08)
(0 -0 -6.67676e-09)
(0 -0 1.58763e-09)
(0 -0 -3.82618e-10)
(0 -0 8.48807e-11)
(0 -0 -2.65846e-11)
(0 -0 -5.4604e-13)
(0 -0 -7.36571e-12)
(0 -0 -4.37116e-12)
(0 -0 2.93753e-13)
(0 -0 7.00425e-12)
(0 -0 2.56837e-12)
(0 -0 -1.10325e-11)
(0 -0 5.18544e-12)
(0 -0 -2.89473e-05)
(0 -0 3.70298e-05)
(0 -0 -8.89753e-06)
(0 -0 2.11321e-06)
(0 -0 -5.09655e-07)
(0 -0 1.20718e-07)
(0 -0 -2.97569e-08)
(0 -0 6.58769e-09)
(0 -0 -1.99195e-09)
(0 -0 1.95766e-10)
(0 -0 -2.38644e-10)
(0 -0 -6.29459e-11)
(0 -0 -5.41269e-11)
(0 -0 -2.02229e-11)
(0 -0 -4.32666e-12)
(0 -0 3.94662e-12)
(0 -0 4.50054e-12)
(0 -0 6.75394e-12)
(0 -0 9.71136e-12)
(0 -0 6.09885e-12)
)
;

boundaryField
{
    movingWall
    {
        type            calculated;
        value           nonuniform List<vector> 
20
(
(0 -0 -3.34506e-05)
(0 -0 3.79977e-05)
(0 -0 -9.33444e-06)
(0 -0 2.20465e-06)
(0 -0 -5.45391e-07)
(0 -0 1.29099e-07)
(0 -0 -3.30489e-08)
(0 -0 6.94167e-09)
(0 -0 -2.53716e-09)
(0 -0 3.67492e-11)
(0 -0 -4.0771e-10)
(0 -0 -1.53439e-10)
(0 -0 -1.11914e-10)
(0 -0 -4.83025e-11)
(0 -0 -1.52513e-11)
(0 -0 -3.66469e-13)
(0 -0 -9.60409e-13)
(0 -0 8.05888e-12)
(0 -0 2.39415e-11)
(0 -0 1.19444e-11)
)
;
    }
    fixedWalls
    {
        type            calculated;
        value           nonuniform List<vector> 
60
(
(0 -0 9.201e-05)
(0 -0 -9.58624e-05)
(0 -0 9.99255e-05)
(0 -0 -0.000105485)
(0 -0 0.000110805)
(0 -0 -0.0001148)
(0 -0 0.000118652)
(0 -0 -0.000122655)
(0 -0 0.000126685)
(0 -0 -0.000130722)
(0 -0 0.000134604)
(0 -0 -0.000138344)
(0 -0 0.000141794)
(0 -0 -0.000144987)
(0 -0 0.000147807)
(0 -0 -0.0001503)
(0 -0 0.000152294)
(0 -0 -0.000154031)
(0 -0 0.000155132)
(0 -0 -0.000156837)
(0 -0 1.39675e-11)
(0 -0 3.0388e-11)
(0 -0 4.92793e-11)
(0 -0 6.63862e-11)
(0 -0 8.11156e-11)
(0 -0 9.34029e-11)
(0 -0 1.02545e-10)
(0 -0 1.08674e-10)
(0 -0 1.11934e-10)
(0 -0 1.12396e-10)
(0 -0 1.10232e-10)
(0 -0 1.05887e-10)
(0 -0 9.93327e-11)
(0 -0 9.07777e-11)
(0 -0 8.04419e-11)
(0 -0 6.85143e-11)
(0 -0 5.57185e-11)
(0 -0 4.18341e-11)
(0 -0 2.61834e-11)
(0 -0 1.40517e-11)
(0 -0 1.42036e-05)
(0 -0 -2.07819e-05)
(0 -0 4.61142e-06)
(0 -0 -1.11202e-06)
(0 -0 2.48888e-07)
(0 -0 -5.67014e-08)
(0 -0 1.38852e-08)
(0 -0 -2.58863e-09)
(0 -0 9.5305e-10)
(0 -0 5.54125e-11)
(0 -0 2.13379e-10)
(0 -0 1.57019e-10)
(0 -0 1.5649e-10)
(0 -0 1.41938e-10)
(0 -0 1.22433e-10)
(0 -0 9.55393e-11)
(0 -0 6.70078e-11)
(0 -0 4.8674e-11)
(0 -0 3.60082e-11)
(0 -0 1.19059e-11)
)
;
    }
    frontAndBack
    {
        type            empty;
    }
}


// ************************************************************************* //
