/*--------------------------------*- C++ -*----------------------------------*\
| =========                 |                                                 |
| \\      /  F ield         | OpenFOAM: The Open Source CFD Toolbox           |
|  \\    /   O peration     | Version:  2506                                  |
|   \\  /    A nd           | Website:  www.openfoam.com                      |
|    \\/     M anipulation  |                                                 |
\*---------------------------------------------------------------------------*/
FoamFile
{
    version     2.0;
    format      ascii;
    arch        "LSB;label=32;scalar=64";
    class       volVectorField;
    location    "3.5";
    object      wallShearStress;
}
// * * * * * * * * * * * * * * * * * * * * * * * * * * * * * * * * * * * * * //

dimensions      [0 2 -2 0 0 0 0];

internalField   uniform (0 0 0);

boundaryField
{
    movingWall
    {
        type            calculated;
        value           uniform (0 0 0);
    }
    fixedWalls
    {
        type            calculated;
        value           nonuniform List<vector> 
60
(
(-4.6155e-11 -8.82842e-10 0)
(1.5242e-10 8.85522e-10 0)
(-2.54308e-10 -9.27839e-10 0)
(3.52573e-10 9.89085e-10 0)
(-4.31786e-10 -1.0597e-09 0)
(4.77745e-10 1.12086e-09 0)
(-5.00941e-10 -1.17687e-09 0)
(5.02196e-10 1.22835e-09 0)
(-4.95283e-10 -1.27689e-09 0)
(4.74513e-10 1.32349e-09 0)
(-4.50717e-10 -1.36726e-09 0)
(4.16399e-10 1.40884e-09 0)
(-3.81107e-10 -1.44658e-09 0)
(3.37824e-10 1.48144e-09 0)
(-2.9446e-10 -1.51138e-09 0)
(2.46306e-10 1.53763e-09 0)
(-1.99238e-10 -1.5591e-09 0)
(1.46866e-10 1.57524e-09 0)
(-1.03271e-10 -1.58709e-09 0)
(4.82949e-11 1.58827e-09 0)
(1.6771e-16 6.70337e-17 0)
(1.58958e-16 3.08217e-16 0)
(1.50406e-16 4.98756e-16 0)
(1.29394e-16 6.73077e-16 0)
(1.10251e-16 8.23625e-16 0)
(8.06722e-17 9.44329e-16 0)
(6.11598e-17 1.03738e-15 0)
(2.85379e-17 1.09921e-15 0)
(8.29995e-18 1.12964e-15 0)
(-1.76839e-17 1.13317e-15 0)
(-3.33941e-17 1.11208e-15 0)
(-5.7928e-17 1.06754e-15 0)
(-7.12764e-17 1.002e-15 0)
(-9.3612e-17 9.17535e-16 0)
(-1.0957e-16 8.13635e-16 0)
(-1.2765e-16 6.9219e-16 0)
(-1.35744e-16 5.59353e-16 0)
(-1.40286e-16 4.24304e-16 0)
(-1.61699e-16 2.79723e-16 0)
(-2.00564e-16 4.7818e-17 0)
(-2.06117e-10 -1.19752e-09 0)
(2.18624e-10 2.68614e-10 0)
(-5.09293e-11 -6.3944e-11 0)
(1.1889e-11 1.43911e-11 0)
(-2.75139e-12 -3.36514e-12 0)
(6.49342e-13 7.74972e-13 0)
(-1.43844e-13 -1.72867e-13 0)
(3.77968e-14 4.18274e-14 0)
(-5.53192e-15 -8.2798e-15 0)
(3.76598e-15 2.45699e-15 0)
(1.29636e-15 -2.61307e-16 0)
(1.7143e-15 2.04147e-16 0)
(1.53662e-15 7.04097e-17 0)
(1.46187e-15 1.53331e-16 0)
(1.25546e-15 2.30354e-16 0)
(9.5952e-16 2.81713e-16 0)
(6.44426e-16 2.4118e-16 0)
(4.63611e-16 1.64882e-16 0)
(3.68224e-16 1.66129e-16 0)
(3.01552e-17 2.1099e-16 0)
)
;
    }
    frontAndBack
    {
        type            empty;
    }
}


// ************************************************************************* //
