/*--------------------------------*- C++ -*----------------------------------*\
| =========                 |                                                 |
| \\      /  F ield         | OpenFOAM: The Open Source CFD Toolbox           |
|  \\    /   O peration     | Version:  2506                                  |
|   \\  /    A nd           | Website:  www.openfoam.com                      |
|    \\/     M anipulation  |                                                 |
\*---------------------------------------------------------------------------*/
FoamFile
{
    version     2.0;
    format      ascii;
    arch        "LSB;label=32;scalar=64";
    class       volScalarField;
    location    "3.5";
    object      yPlus;
}
// * * * * * * * * * * * * * * * * * * * * * * * * * * * * * * * * * * * * * //

dimensions      [0 0 0 0 0 0 0];

internalField   uniform 0;

boundaryField
{
    movingWall
    {
        type            calculated;
        value           nonuniform List<scalar> 
20
(
0.00993324
0.00487793
0.00237588
0.00116688
0.000570618
0.000279757
0.000137205
6.78734e-05
3.38563e-05
1.96406e-05
1.37484e-05
1.06691e-05
7.9956e-06
5.46922e-06
2.80122e-06
8.82686e-07
1.22764e-06
2.39754e-06
4.18204e-06
2.96749e-06
)
;
    }
    fixedWalls
    {
        type            calculated;
        value           nonuniform List<scalar> 
60
(
0.0075085
0.00761663
0.00782582
0.00810848
0.00839372
0.00860975
0.00879102
0.00894664
0.00908971
0.00921927
0.00933985
0.00944925
0.00954865
0.00963743
0.00971459
0.00978139
0.00983554
0.0098787
0.00990894
0.00993324
2.82255e-06
4.42993e-06
5.59212e-06
6.47535e-06
7.15388e-06
7.66398e-06
8.03026e-06
8.26521e-06
8.38334e-06
8.39873e-06
8.31914e-06
8.15329e-06
7.89883e-06
7.55747e-06
7.11881e-06
6.57491e-06
5.92897e-06
5.16588e-06
4.20161e-06
2.96749e-06
0.0075085
0.00358151
0.00174365
0.000832336
0.00040079
0.000193446
9.15403e-05
4.50575e-05
2.08822e-05
1.32678e-05
1.04127e-05
1.01476e-05
9.84569e-06
9.49551e-06
8.82109e-06
7.77578e-06
6.46261e-06
5.49481e-06
4.81979e-06
2.82255e-06
)
;
    }
    frontAndBack
    {
        type            empty;
    }
}


// ************************************************************************* //
