/*--------------------------------*- C++ -*----------------------------------*\
| =========                 |                                                 |
| \\      /  F ield         | OpenFOAM: The Open Source CFD Toolbox           |
|  \\    /   O peration     | Version:  2506                                  |
|   \\  /    A nd           | Website:  www.openfoam.com                      |
|    \\/     M anipulation  |                                                 |
\*---------------------------------------------------------------------------*/
FoamFile
{
    version     2.0;
    format      ascii;
    arch        "LSB;label=32;scalar=64";
    class       volScalarField;
    location    "3.5";
    object      zeroGradient(epsilon);
}
// * * * * * * * * * * * * * * * * * * * * * * * * * * * * * * * * * * * * * //

dimensions      [0 2 -3 0 0 0 0];

internalField   nonuniform List<scalar> 
400
(
4.11892e-05
4.11877e-05
4.11874e-05
4.11859e-05
4.11859e-05
4.11845e-05
4.11845e-05
4.11836e-05
4.11834e-05
4.11829e-05
4.11825e-05
4.11822e-05
4.1182e-05
4.11818e-05
4.11816e-05
4.11815e-05
4.11814e-05
4.11813e-05
4.11813e-05
4.11813e-05
6.49998e-05
6.2273e-05
6.24719e-05
6.2556e-05
6.27259e-05
6.28144e-05
6.29867e-05
6.308e-05
6.32543e-05
6.33529e-05
6.35291e-05
6.36332e-05
6.38112e-05
6.39208e-05
6.41006e-05
6.4216e-05
6.43974e-05
6.45189e-05
6.46107e-05
6.47643e-05
0.000100946
9.58828e-05
9.62467e-05
9.64006e-05
9.67122e-05
9.68743e-05
9.71904e-05
9.73616e-05
9.76814e-05
9.78625e-05
9.81857e-05
9.8377e-05
9.87035e-05
9.89053e-05
9.92349e-05
9.94475e-05
9.97801e-05
0.000100004
0.000100172
0.000100454
0.000132413
0.000124984
0.000125506
0.000125727
0.000126176
0.000126411
0.000126866
0.000127115
0.000127577
0.000127842
0.000128309
0.00012859
0.000129063
0.00012936
0.000129838
0.000130152
0.000130636
0.000130968
0.000131213
0.000131627
0.000153569
0.000144423
0.000145056
0.000145325
0.000145871
0.000146157
0.000146712
0.000147017
0.000147579
0.000147904
0.000148474
0.00014882
0.000149397
0.000149764
0.000150349
0.000150736
0.000151329
0.000151739
0.000152039
0.000152549
0.000166073
0.000155877
0.000156577
0.000156875
0.000157479
0.000157796
0.000158411
0.00015875
0.000159374
0.000159735
0.000160367
0.000160752
0.000161393
0.000161802
0.000162451
0.000162884
0.000163543
0.000164001
0.000164335
0.000164904
0.000173292
0.00016248
0.000163217
0.000163532
0.000164171
0.000164506
0.000165155
0.000165514
0.000166173
0.000166556
0.000167225
0.000167632
0.00016831
0.000168744
0.000169431
0.000169891
0.000170587
0.000171074
0.000171428
0.000172031
0.000177741
0.000166547
0.000167309
0.000167634
0.000168293
0.00016864
0.000169311
0.000169682
0.000170363
0.000170759
0.000171449
0.000171872
0.000172572
0.000173021
0.000173732
0.000174208
0.000174928
0.000175433
0.000175799
0.000176423
0.000180886
0.000169423
0.000170202
0.000170534
0.000171208
0.000171563
0.000172249
0.000172628
0.000173325
0.00017373
0.000174437
0.000174869
0.000175586
0.000176045
0.000176772
0.00017726
0.000177997
0.000178514
0.000178889
0.000179528
0.000183496
0.00017181
0.000172602
0.000172941
0.000173627
0.000173988
0.000174687
0.000175073
0.000175782
0.000176196
0.000176915
0.000177356
0.000178086
0.000178555
0.000179295
0.000179793
0.000180543
0.000181071
0.000181453
0.000182104
0.000185974
0.000174076
0.000174881
0.000175225
0.000175923
0.000176291
0.000177001
0.000177394
0.000178116
0.000178536
0.000179268
0.000179717
0.00018046
0.000180937
0.00018169
0.000182197
0.000182961
0.000183498
0.000183887
0.00018455
0.000188549
0.00017643
0.000177249
0.000177599
0.000178309
0.000178683
0.000179405
0.000179806
0.00018054
0.000180968
0.000181713
0.00018217
0.000182926
0.000183412
0.000184179
0.000184695
0.000185473
0.000186021
0.000186416
0.000187091
0.00019137
0.000179008
0.000179842
0.000180198
0.000180922
0.000181303
0.000182039
0.000182447
0.000183195
0.000183632
0.000184391
0.000184857
0.000185627
0.000186123
0.000186905
0.000187432
0.000188225
0.000188783
0.000189187
0.000189876
0.000194559
0.00018192
0.000182772
0.000183135
0.000183874
0.000184263
0.000185014
0.000185431
0.000186195
0.000186641
0.000187416
0.000187893
0.000188679
0.000189187
0.000189985
0.000190524
0.000191334
0.000191906
0.000192318
0.000193022
0.00019824
0.000185281
0.000186152
0.000186525
0.00018728
0.000187679
0.000188448
0.000188876
0.000189657
0.000190115
0.000190908
0.000191397
0.000192203
0.000192723
0.000193541
0.000194094
0.000194923
0.00019551
0.000195932
0.000196654
0.000202573
0.000189234
0.000190127
0.00019051
0.000191286
0.000191696
0.000192486
0.000192926
0.000193729
0.0001942
0.000195016
0.000195519
0.000196347
0.000196882
0.000197723
0.000198292
0.000199146
0.00019975
0.000200184
0.000200927
0.00020772
0.000193927
0.000194849
0.000195244
0.000196044
0.000196467
0.000197283
0.000197737
0.000198565
0.000199052
0.000199894
0.000200414
0.000201269
0.000201823
0.000202691
0.00020328
0.000204161
0.000204786
0.000205235
0.000206003
0.000213618
0.000199312
0.000200265
0.000200673
0.000201501
0.000201939
0.000202782
0.000203253
0.00020411
0.000204615
0.000205486
0.000206026
0.000206911
0.000207487
0.000208385
0.000208998
0.000209911
0.000210561
0.000211026
0.000211823
0.000219338
0.000204918
0.000205852
0.000206253
0.000207072
0.000207507
0.000208345
0.000208817
0.000209672
0.000210183
0.000211056
0.000211607
0.000212497
0.00021309
0.000213998
0.000214634
0.000215561
0.000216241
0.000216715
0.000217539
0.000221327
0.000221319
0.000221313
0.000221309
0.000221307
0.000221301
0.0002213
0.000221294
0.000221296
0.00022129
0.000221292
0.000221288
0.000221289
0.000221287
0.000221288
0.000221287
0.000221287
0.000221287
0.000221287
0.000221287
)
;

boundaryField
{
    movingWall
    {
        type            zeroGradient;
    }
    fixedWalls
    {
        type            zeroGradient;
    }
    frontAndBack
    {
        type            empty;
    }
}


// ************************************************************************* //
