/*--------------------------------*- C++ -*----------------------------------*\
| =========                 |                                                 |
| \\      /  F ield         | OpenFOAM: The Open Source CFD Toolbox           |
|  \\    /   O peration     | Version:  2506                                  |
|   \\  /    A nd           | Website:  www.openfoam.com                      |
|    \\/     M anipulation  |                                                 |
\*---------------------------------------------------------------------------*/
FoamFile
{
    version     2.0;
    format      ascii;
    arch        "LSB;label=32;scalar=64";
    class       volScalarField;
    location    "0.875";
    object      p;
}
// * * * * * * * * * * * * * * * * * * * * * * * * * * * * * * * * * * * * * //

dimensions      [0 2 -2 0 0 0 0];

internalField   nonuniform List<scalar> 
6400
(
5.80004e-07
1.31783e-05
-0.000494201
-0.00152811
-0.00297191
-0.0047153
-0.0066579
-0.00871009
-0.0107946
-0.012846
-0.014809
-0.0166376
-0.0182932
-0.0197441
-0.0209644
-0.0219334
-0.0226349
-0.0230568
-0.0231905
-0.0230307
-0.0225748
-0.0218229
-0.0207776
-0.0194432
-0.0178264
-0.0159354
-0.01378
-0.0113714
-0.00872242
-0.00584685
-0.00275971
0.00052293
0.00398408
0.00760587
0.0113696
0.0152559
0.0192448
0.0233156
0.0274472
0.0316181
0.0358065
0.0399903
0.0441473
0.048255
0.0522914
0.0562343
0.0600618
0.0637525
0.0672856
0.0706407
0.0737983
0.0767401
0.0794487
0.0819078
0.0841029
0.086021
0.0876509
0.0889833
0.0900113
0.0907302
0.0911382
0.0912361
0.091028
0.0905213
0.089727
0.0886601
0.0873401
0.085791
0.0840423
0.0821293
0.0800937
0.0779848
0.0758602
0.0737867
0.0718421
0.0701149
0.0687023
0.0677085
0.0672404
0.0672781
-1.11202e-05
2.00174e-06
-0.000452219
-0.00133648
-0.00255157
-0.00401822
-0.0056605
-0.00740598
-0.00918938
-0.0109534
-0.0126483
-0.0142315
-0.015667
-0.0169244
-0.0179786
-0.0188092
-0.0193999
-0.0197384
-0.0198153
-0.0196249
-0.0191636
-0.0184307
-0.0174277
-0.0161582
-0.0146275
-0.0128427
-0.0108126
-0.00854742
-0.0060585
-0.00335858
-0.000461478
0.00261797
0.005864
0.00925997
0.0127885
0.0164314
0.02017
0.0239851
0.0278567
0.0317649
0.0356891
0.0396086
0.0435027
0.0473505
0.0511311
0.0548241
0.058409
0.0618659
0.0651754
0.0683188
0.0712782
0.0740365
0.0765779
0.0788877
0.0809526
0.0827611
0.0843032
0.085571
0.0865585
0.0872624
0.0876816
0.0878177
0.0876755
0.0872628
0.0865909
0.0856747
0.0845334
0.0831902
0.0816734
0.0800161
0.0782573
0.076442
0.0746218
0.0728551
0.0712074
0.0697498
0.0685558
0.0677003
0.0672767
0.0673156
0.00049523
0.000457261
2.94452e-06
-0.000813792
-0.00190558
-0.00320907
-0.00466305
-0.00620739
-0.00778641
-0.00935005
-0.010854
-0.0122595
-0.0135332
-0.0146467
-0.0155762
-0.0163021
-0.0168085
-0.017083
-0.0171165
-0.0169025
-0.0164374
-0.0157199
-0.0147507
-0.0135327
-0.0120705
-0.0103704
-0.00844042
-0.00628966
-0.00392873
-0.00136939
0.00137552
0.00429215
0.00736572
0.0105806
0.0139205
0.0173682
0.0209061
0.0245161
0.0281794
0.0318771
0.0355897
0.0392978
0.0429817
0.0466217
0.0501983
0.0536919
0.0570835
0.0603543
0.0634862
0.0664615
0.0692636
0.0718767
0.0742858
0.0764776
0.0784399
0.080162
0.081635
0.0828518
0.0838074
0.084499
0.0849261
0.085091
0.0849986
0.0846569
0.084077
0.0832736
0.0822651
0.0810737
0.0797259
0.0782528
0.0766902
0.0750789
0.073465
0.0718995
0.0704383
0.0691407
0.0680659
0.0672743
0.0668516
0.0668492
0.00152882
0.00134381
0.000819671
-3.3453e-07
-0.00104943
-0.002274
-0.00362226
-0.00504346
-0.00648992
-0.00791804
-0.00928859
-0.0105668
-0.0117224
-0.0127292
-0.013565
-0.0142114
-0.0146533
-0.0148788
-0.0148789
-0.0146474
-0.0141804
-0.0134762
-0.0125353
-0.0113602
-0.00995478
-0.0083249
-0.00647772
-0.00442182
-0.00216702
0.000275694
0.00289427
0.00567567
0.00860597
0.0116704
0.0148535
0.018139
0.0215103
0.02495
0.0284404
0.0319634
0.0355007
0.0390336
0.0425436
0.0460118
0.0494198
0.052749
0.0559813
0.059099
0.0620849
0.0649223
0.0675956
0.0700897
0.0723908
0.0744863
0.0763647
0.0780164
0.0794329
0.0806079
0.0815369
0.0822175
0.0826497
0.0828359
0.082781
0.0824928
0.0819822
0.0812632
0.0803532
0.0792731
0.0780476
0.0767053
0.0752787
0.0738048
0.0723242
0.0708818
0.0695258
0.0683064
0.0672742
0.0664807
0.0659941
0.0658585
0.00297875
0.0025671
0.00191504
0.00104211
-1.44049e-05
-0.00120963
-0.00249963
-0.0038421
-0.00519674
-0.00652602
-0.00779572
-0.00897512
-0.0100371
-0.0109579
-0.0117173
-0.0122984
-0.012687
-0.0128721
-0.012845
-0.0125998
-0.0121325
-0.0114416
-0.0105272
-0.00939148
-0.00803801
-0.00647207
-0.00470032
-0.00273072
-0.000572458
0.00176416
0.0042678
0.00692617
0.0097261
0.0126536
0.0156941
0.0188321
0.0220518
0.0253367
0.0286699
0.0320344
0.0354125
0.0387866
0.042139
0.0454517
0.0487072
0.0518879
0.0549764
0.0579561
0.0608105
0.0635238
0.0660812
0.0684685
0.0706727
0.0726818
0.0744851
0.0760734
0.0774391
0.0785762
0.0794806
0.0801502
0.0805852
0.080788
0.0807635
0.0805191
0.080065
0.0794145
0.0785838
0.0775923
0.0764627
0.0752211
0.0738967
0.0725222
0.0711337
0.0697699
0.0684718
0.0672821
0.0662438
0.0654007
0.0647939
0.0644459
0.00474279
0.00405406
0.00323089
0.00226471
0.00115935
-4.80824e-05
-0.0013203
-0.00262258
-0.00392134
-0.00518471
-0.00638322
-0.00749009
-0.00848136
-0.00933599
-0.0100358
-0.0105653
-0.0109117
-0.0110648
-0.0110167
-0.0107616
-0.0102962
-0.00961856
-0.00872903
-0.0076294
-0.0063231
-0.00481499
-0.00311129
-0.00121946
0.000851856
0.00309296
0.00549313
0.00804076
0.0107234
0.0135277
0.0164399
0.0194452
0.0225286
0.0256744
0.0288666
0.0320887
0.0353241
0.0385559
0.0417672
0.0449409
0.0480601
0.0511082
0.0540686
0.0569253
0.0596627
0.0622659
0.0647204
0.0670131
0.0691313
0.0710638
0.0728005
0.0743326
0.075653
0.076756
0.0776377
0.0782963
0.0787319
0.0789468
0.0789456
0.0787353
0.0783255
0.0777283
0.0769588
0.0760345
0.0749763
0.0738074
0.0725542
0.0712454
0.0699122
0.0685881
0.0673076
0.0661064
0.0650212
0.0640889
0.0633191
0.0627078
0.00673012
0.00573606
0.00471193
0.00362086
0.00243271
0.00117806
-0.000111269
-0.00140723
-0.00268224
-0.00390958
-0.0050642
-0.00612307
-0.00706538
-0.00787266
-0.00852884
-0.00902017
-0.00933522
-0.00946476
-0.00940168
-0.00914085
-0.00867907
-0.00801487
-0.00714848
-0.00608169
-0.00481774
-0.00336123
-0.00171805
0.000104742
0.00209897
0.00425543
0.00656398
0.00901356
0.0115923
0.0142877
0.0170863
0.0199744
0.0229373
0.0259603
0.029028
0.0321246
0.0352342
0.0383408
0.041428
0.0444795
0.0474793
0.0504112
0.0532595
0.0560088
0.0586442
0.0611512
0.0635163
0.0657266
0.0677703
0.0696363
0.0713151
0.0727983
0.0740789
0.0751517
0.0760128
0.0766604
0.0770945
0.0773171
0.0773325
0.0771471
0.0767696
0.0762112
0.0754854
0.0746083
0.0735983
0.0724764
0.0712658
0.0699917
0.068681
0.0673622
0.0660643
0.0648165
0.0636507
0.0625977
0.0616347
0.0607309
0.00886137
0.0075485
0.00630431
0.00506517
0.00376816
0.00243855
0.00110382
-0.000213819
-0.00149208
-0.00270886
-0.00384315
-0.00487543
-0.0057879
-0.00656462
-0.00719162
-0.0076569
-0.00795043
-0.0080641
-0.00799169
-0.00772873
-0.00727245
-0.00662172
-0.00577692
-0.00473987
-0.00351374
-0.00210297
-0.000513204
0.00124881
0.00317528
0.00525743
0.00748556
0.00984915
0.0123369
0.0149367
0.017636
0.0204213
0.023279
0.0261946
0.0291535
0.0321406
0.0351407
0.0381382
0.0411175
0.0440631
0.0469593
0.0497907
0.0525422
0.0551988
0.0577463
0.0601708
0.0624591
0.0645989
0.0665786
0.0683877
0.0700169
0.0714581
0.0727045
0.0737508
0.0745934
0.0752302
0.075661
0.0758876
0.0759135
0.0757447
0.0753889
0.0748562
0.0741587
0.0733108
0.0723288
0.0712313
0.0700387
0.0687728
0.0674568
0.0661148
0.0647707
0.0634482
0.0621754
0.0609781
0.0598024
0.0585913
0.0110695
0.00943384
0.00795849
0.00655508
0.00512973
0.00370368
0.00230098
0.000938878
-0.000364998
-0.00159263
-0.00272665
-0.00375078
-0.00465004
-0.0054109
-0.00602145
-0.00647142
-0.00675222
-0.00685691
-0.0067802
-0.00651835
-0.00606916
-0.00543186
-0.0046071
-0.0035968
-0.00240416
-0.00103355
0.00050957
0.00221867
0.00408626
0.0061039
0.00826231
0.0105514
0.0129603
0.0154775
0.0180908
0.0207874
0.0235541
0.0263771
0.0292423
0.0321353
0.0350412
0.0379452
0.0408321
0.0436871
0.0464949
0.0492407
0.0519098
0.0544879
0.0569611
0.0593159
0.0615395
0.06362
0.065546
0.0673075
0.0688951
0.0703011
0.0715185
0.0725422
0.0733684
0.0739948
0.0744211
0.0746483
0.0746797
0.0745203
0.0741768
0.0736584
0.0729756
0.0721413
0.0711698
0.0700774
0.0688817
0.0676016
0.0662569
0.064868
0.0634545
0.0620354
0.0606356
0.0592773
0.0578769
0.0563536
0.0132984
0.0113419
0.00962997
0.00805143
0.00648358
0.00494465
0.00345617
0.00203117
0.000683276
-0.000573086
-0.00172381
-0.00275556
-0.00365593
-0.0044137
-0.00501892
-0.00546301
-0.0057388
-0.00584055
-0.00576392
-0.00550597
-0.0050651
-0.004441
-0.00363462
-0.0026481
-0.0014847
-0.000148806
0.00135422
0.003018
0.00483527
0.00679788
0.00889687
0.0111225
0.0134643
0.0159113
0.0184515
0.0210729
0.0237625
0.0265072
0.0292932
0.0321066
0.0349333
0.0377586
0.0405682
0.0433473
0.0460814
0.048756
0.0513568
0.05387
0.0562819
0.0585794
0.0607501
0.0627821
0.0646645
0.0663873
0.0679413
0.0693185
0.0705124
0.0715174
0.0723297
0.0729466
0.0733675
0.0735929
0.0736255
0.0734692
0.0731301
0.072616
0.0719363
0.071102
0.0701259
0.0690219
0.0678052
0.0664921
0.0650995
0.0636443
0.0621427
0.0606097
0.059068
0.0575371
0.0559057
0.0540712
0.0155013
0.0132292
0.0112791
0.00951857
0.00779818
0.00613403
0.00454591
0.00304331
0.00163642
0.000336554
-0.000845062
-0.00189772
-0.00281141
-0.00357703
-0.00418648
-0.00463281
-0.00491023
-0.00501419
-0.00494134
-0.00468953
-0.00425781
-0.00364639
-0.00285657
-0.00189076
-0.000752375
0.000554168
0.00202351
0.00364938
0.00542466
0.00734143
0.00939098
0.0115639
0.01385
0.0162387
0.0187185
0.0212775
0.0239035
0.0265835
0.0293044
0.0320526
0.0348144
0.0375755
0.0403221
0.0430397
0.0457142
0.0483316
0.0508778
0.0533392
0.0557025
0.0579549
0.060084
0.0620784
0.0639269
0.0656198
0.0671479
0.0685032
0.069679
0.0706695
0.0714706
0.0720794
0.0724946
0.0727165
0.0727467
0.0725885
0.0722471
0.071729
0.0710422
0.0701965
0.0692028
0.0680731
0.0668205
0.0654588
0.0640022
0.0624652
0.0608605
0.0592003
0.0575058
0.0557946
0.0539298
0.0517883
0.0176389
0.0150581
0.0128705
0.0109242
0.00904438
0.00724597
0.00554758
0.00395579
0.00247786
0.00112246
-0.000101743
-0.00118639
-0.00212363
-0.00290629
-0.00352804
-0.00398345
-0.00426808
-0.00437851
-0.00431239
-0.00406838
-0.00364621
-0.00304661
-0.00227131
-0.00132301
-0.000205324
0.00107721
0.00251921
0.00411444
0.00585589
0.00773578
0.00974563
0.0118762
0.0141178
0.0164598
0.0188913
0.0214007
0.023976
0.0266048
0.0292741
0.0319709
0.0346817
0.0373927
0.0400902
0.0427603
0.0453891
0.0479627
0.0504675
0.05289
0.0552172
0.0574363
0.0595352
0.0615023
0.0633268
0.0649986
0.0665086
0.0678488
0.0690121
0.0699926
0.0707857
0.0713882
0.0717983
0.0720154
0.0720408
0.0718768
0.0715276
0.0709985
0.0702965
0.0694297
0.0684075
0.0672403
0.0659392
0.064516
0.0629826
0.0613509
0.0596316
0.0578341
0.0559788
0.0540825
0.051984
0.0495415
0.0196775
0.0167957
0.014373
0.012239
0.0101953
0.00825612
0.00643945
0.00474947
0.00319099
0.00177037
0.000494067
-0.000631641
-0.00160085
-0.00240817
-0.00304888
-0.00351898
-0.00381533
-0.00393561
-0.00387843
-0.00364328
-0.00323056
-0.00264155
-0.00187844
-0.00094425
0.000157149
0.00142107
0.00284205
0.00441385
0.0061295
0.00798134
0.009961
0.0120595
0.0142672
0.016574
0.018969
0.0214411
0.0239784
0.026569
0.0292001
0.0318589
0.0345323
0.0372068
0.039869
0.0425052
0.0451017
0.0476449
0.0501213
0.0525176
0.0548208
0.0570183
0.059098
0.0610483
0.0628584
0.064518
0.066018
0.06735
0.0685067
0.069482
0.0702708
0.0708694
0.0712754
0.0714877
0.0715066
0.0713339
0.0709726
0.070427
0.0697029
0.0688071
0.0677476
0.0665332
0.0651733
0.063678
0.0620572
0.060321
0.0584779
0.0565353
0.0545137
0.0524293
0.0500984
0.0473613
0.0215885
0.0184133
0.0157585
0.0134363
0.0112261
0.00914161
0.00720076
0.00540572
0.00375926
0.00226574
0.000929745
-0.000244324
-0.0012523
-0.00209042
-0.00275542
-0.00324469
-0.00355626
-0.0036889
-0.00364213
-0.00341627
-0.00301238
-0.00243233
-0.00167875
-0.000755045
0.000334651
0.00158546
0.00299178
0.00454734
0.00624517
0.00807765
0.0100365
0.012113
0.0142975
0.0165801
0.0189503
0.0213971
0.0239089
0.0264739
0.0290797
0.0317138
0.0343631
0.0370146
0.0396549
0.0422705
0.0448479
0.0473737
0.0498345
0.052217
0.0545083
0.0566958
0.0587674
0.0607114
0.0625168
0.0641733
0.0656714
0.0670025
0.0681589
0.0691342
0.0699228
0.0705205
0.0709242
0.0711323
0.0711442
0.0709608
0.0705843
0.0700181
0.0692666
0.0683355
0.0672315
0.065962
0.064535
0.0629589
0.0612423
0.0593936
0.0574196
0.0553263
0.0531343
0.0508601
0.0482986
0.0452733
0.0233469
0.0198853
0.0170019
0.014492
0.0121137
0.00988091
0.00781161
0.00590639
0.00416625
0.00259391
0.00119227
-3.59023e-05
-0.00108799
-0.0019617
-0.00265514
-0.00316694
-0.00349627
-0.00364292
-0.00360732
-0.00339055
-0.00299436
-0.00242119
-0.00167414
-0.000757009
0.000325771
0.00156909
0.00296722
0.00451376
0.00620172
0.00802349
0.00997089
0.0120351
0.0142069
0.0164764
0.0188332
0.0212665
0.023765
0.0263169
0.0289102
0.0315324
0.0341708
0.0368124
0.039444
0.0420522
0.0446236
0.0471449
0.0496027
0.0519838
0.0542753
0.0564644
0.058539
0.0604871
0.0622977
0.0639602
0.0654648
0.0668026
0.0679654
0.0689464
0.0697395
0.0703399
0.070744
0.0709492
0.0709544
0.0707596
0.070366
0.0697761
0.0689933
0.0680221
0.066868
0.0655372
0.0640364
0.0623727
0.0605536
0.0585861
0.0564757
0.0542274
0.0518621
0.0493972
0.0466071
0.0432992
0.0249305
0.021189
0.0180803
0.0153837
0.0128367
0.0104537
0.00825295
0.0062338
0.00439576
0.0027401
0.00126829
-1.83452e-05
-0.00111859
-0.00203148
-0.00275638
-0.00329307
-0.0036418
-0.00380331
-0.00377889
-0.00357038
-0.00318022
-0.0026114
-0.00186752
-0.000952746
0.000128141
0.00136979
0.00276628
0.00431111
0.00599719
0.00781691
0.00976208
0.011824
0.0139934
0.0162606
0.0186153
0.0210468
0.0235439
0.0260952
0.0286885
0.0313117
0.033952
0.0365967
0.0392326
0.0418464
0.0444248
0.0469544
0.0494219
0.051814
0.0541176
0.05632
0.0584086
0.0603717
0.0621975
0.0638755
0.0653953
0.0667476
0.067924
0.0689169
0.0697197
0.0703272
0.0707349
0.0709396
0.0709393
0.0707333
0.0703218
0.0697064
0.0688895
0.0678747
0.0666663
0.0652694
0.0636897
0.0619332
0.0600062
0.0579149
0.0556639
0.0532571
0.0507166
0.0480604
0.0450435
0.0414578
0.0263194
0.0223036
0.0189728
0.0160906
0.0133749
0.0108405
0.00850642
0.00637072
0.00443173
0.0026895
0.00114421
-0.000204055
-0.00135535
-0.00230992
-0.00306828
-0.00363128
-0.00400017
-0.00417661
-0.0041627
-0.00396104
-0.00357469
-0.00300723
-0.00226274
-0.00134579
-0.00026151
0.000984497
0.00238609
0.0039366
0.00562887
0.00745521
0.00940742
0.0114768
0.0136541
0.0159298
0.0182936
0.0207348
0.0232426
0.0258053
0.0284112
0.0310479
0.033703
0.0363637
0.0390168
0.0416492
0.0442475
0.0467982
0.0492879
0.0517034
0.0540312
0.0562586
0.0583728
0.0603615
0.062213
0.0639161
0.0654602
0.0668355
0.068033
0.0690446
0.0698632
0.0704826
0.070898
0.0711053
0.0711017
0.0708856
0.0704565
0.0698149
0.0689625
0.0679017
0.0666361
0.0651696
0.0635071
0.0616537
0.0596148
0.0573959
0.0550008
0.052433
0.0497156
0.0468677
0.0436254
0.0397653
0.0274955
0.02321
0.0196599
0.0165934
0.0137092
0.011023
0.00855424
0.00630026
0.00425825
0.0024272
0.000806203
-0.00060582
-0.00181004
-0.00280781
-0.00360069
-0.00419055
-0.00457956
-0.00477025
-0.00476552
-0.00456866
-0.00418339
-0.00361384
-0.00286456
-0.00194056
-0.000847299
0.000409321
0.00182293
0.00338669
0.00509331
0.00693501
0.00890355
0.0109902
0.0131858
0.0154806
0.0178646
0.0203272
0.0228573
0.0254437
0.0280744
0.0307374
0.03342
0.0361095
0.0387928
0.0414567
0.0440877
0.0466723
0.049197
0.0516482
0.0540125
0.0562768
0.058428
0.0604536
0.0623414
0.0640797
0.0656576
0.0670647
0.0682915
0.0693292
0.0701701
0.0708073
0.0712352
0.071449
0.0714452
0.0712213
0.0707758
0.0701084
0.06922
0.0681121
0.0667874
0.065249
0.063501
0.0615476
0.0593937
0.0570442
0.0545024
0.0517715
0.0488757
0.0458355
0.0423685
0.0382365
0.0284416
0.0238902
0.0201231
0.0168735
0.0138214
0.0109831
0.00837909
0.00600579
0.00385949
0.00193826
0.000240198
-0.00123679
-0.0024949
-0.00353649
-0.00436412
-0.00498057
-0.00538891
-0.00559248
-0.00559494
-0.00540027
-0.0050128
-0.00443722
-0.00367857
-0.00274227
-0.00163414
-0.000360387
0.00107238
0.00265712
0.00438639
0.0062523
0.00824652
0.0103603
0.0125844
0.0149092
0.0173245
0.0198199
0.0223843
0.0250063
0.0276743
0.0303759
0.0330987
0.0358299
0.0385563
0.0412647
0.0439414
0.0465728
0.0491452
0.0516448
0.0540581
0.0563714
0.0585715
0.0606454
0.0625804
0.0643646
0.0659862
0.0674345
0.0686992
0.0697711
0.0706416
0.0713031
0.0717492
0.0719743
0.0719742
0.0717455
0.0712858
0.0705942
0.0696704
0.0685153
0.0671307
0.0655191
0.0636837
0.0616283
0.0593571
0.0568748
0.0541841
0.051288
0.0482125
0.0449792
0.0412877
0.0368848
0.0291418
0.0243272
0.0203449
0.0169132
0.0136937
0.0107035
0.00796395
0.00547086
0.00321965
0.00120759
-0.000568108
-0.00211047
-0.00342263
-0.00450788
-0.00536969
-0.00601172
-0.00643787
-0.00665228
-0.00665931
-0.00646364
-0.00607018
-0.00548417
-0.00471113
-0.00375692
-0.0026277
-0.00133001
0.000129288
0.00174294
0.00350333
0.00540242
0.0074318
0.00958262
0.0118456
0.0142111
0.0166689
0.0192085
0.021819
0.0244889
0.0272063
0.0299593
0.032735
0.0355207
0.0383032
0.041069
0.0438045
0.0464957
0.0491287
0.0516896
0.0541644
0.0565392
0.0588003
0.0609343
0.0629281
0.064769
0.066445
0.0679444
0.0692565
0.0703711
0.0712792
0.0719723
0.0724431
0.0726853
0.0726937
0.0724642
0.0719937
0.0712801
0.0703226
0.0691211
0.0676768
0.0659916
0.0640679
0.0619092
0.0595192
0.0569021
0.0540607
0.0509979
0.0477411
0.0443136
0.0403967
0.0357226
0.0295805
0.0245044
0.0203083
0.0166953
0.0133088
0.010167
0.007292
0.00467906
0.00232288
0.000219959
-0.00163329
-0.00324073
-0.00460637
-0.00573439
-0.00662909
-0.00729499
-0.00773678
-0.00795933
-0.00796773
-0.00776729
-0.00736352
-0.00676221
-0.00596934
-0.00499121
-0.00383435
-0.00250561
-0.00101215
0.000638573
0.00243873
0.00438014
0.00645427
0.00865217
0.0109645
0.0133815
0.015893
0.0184885
0.0211568
0.0238866
0.026666
0.0294828
0.0323243
0.0351775
0.0380291
0.0408655
0.0436728
0.046437
0.0491439
0.0517791
0.0543283
0.0567773
0.059112
0.0613183
0.0633827
0.065292
0.0670333
0.0685944
0.0699638
0.0711308
0.0720851
0.0728179
0.0733207
0.0735866
0.0736094
0.0733841
0.0729068
0.0721747
0.071186
0.06994
0.0684372
0.0666787
0.0646666
0.0624039
0.0598939
0.0571408
0.0541472
0.0509159
0.0474761
0.0438528
0.0397091
0.0347622
0.0297422
0.0244058
0.0199965
0.0162028
0.0126498
0.00935662
0.00634648
0.00361399
0.00115319
-0.0010401
-0.00297022
-0.00464181
-0.00605972
-0.00722894
-0.0081546
-0.00884199
-0.00929658
-0.00952398
-0.00952995
-0.00932043
-0.00890153
-0.00827955
-0.00746098
-0.00645252
-0.00526111
-0.0038939
-0.00235835
-0.000662166
0.00118663
0.00317968
0.0053083
0.00756344
0.00993567
0.0124151
0.0149916
0.0176545
0.0203926
0.0231945
0.0260483
0.0289416
0.0318617
0.0347954
0.0377293
0.0406496
0.0435422
0.0463928
0.0491869
0.0519097
0.0545467
0.057083
0.0595041
0.0617955
0.0639429
0.0659326
0.0677509
0.069385
0.0708226
0.0720519
0.0730622
0.0738435
0.0743867
0.0746837
0.0747276
0.0745124
0.0740334
0.073287
0.0722707
0.0709829
0.0694235
0.067593
0.0654931
0.0631263
0.0604958
0.0576057
0.0544583
0.051057
0.0474323
0.0436111
0.0392381
0.0340157
0.0296119
0.0240153
0.0193929
0.0154188
0.0116996
0.00825541
0.00511055
0.00225908
-0.000305612
-0.00258833
-0.00459411
-0.00632838
-0.00779674
-0.00900498
-0.00995901
-0.0106649
-0.0111289
-0.0113572
-0.0113564
-0.0111329
-0.0106935
-0.0100451
-0.00919446
-0.00814887
-0.00691561
-0.00550218
-0.00391633
-0.00216601
-0.000259483
0.00179473
0.00398778
0.00631047
0.00875328
0.0113063
0.0139591
0.0167011
0.019521
0.0224073
0.025348
0.0283306
0.0313423
0.0343697
0.0373993
0.0404169
0.0434084
0.0463589
0.0492538
0.052078
0.0548163
0.0574535
0.0599745
0.0623641
0.0646075
0.0666903
0.068598
0.070317
0.0718342
0.073137
0.0742136
0.0750532
0.0756458
0.0759824
0.076055
0.0758569
0.0753824
0.074627
0.0735874
0.0722614
0.0706481
0.0687476
0.0665611
0.0640907
0.0613396
0.0583117
0.0550094
0.0514361
0.0476243
0.0436027
0.0389973
0.0334951
0.0291742
0.0233167
0.018481
0.0143263
0.010441
0.00684621
0.00356718
0.000597525
-0.00207
-0.0044408
-0.0065206
-0.00831553
-0.00983198
-0.0110765
-0.0120557
-0.0127765
-0.0132458
-0.0134706
-0.013458
-0.0132152
-0.0127495
-0.0120682
-0.0111788
-0.0100888
-0.00880606
-0.0073383
-0.00569361
-0.00388021
-0.00190659
0.000218521
0.00248612
0.00488686
0.00741109
0.0100488
0.0127895
0.0156224
0.0185362
0.0215193
0.0245596
0.0276444
0.0307607
0.0338952
0.0370339
0.0401626
0.0432667
0.0463312
0.0493409
0.0522804
0.0551341
0.0578861
0.0605208
0.0630225
0.0653755
0.0675647
0.0695748
0.0713915
0.0730006
0.0743886
0.0755429
0.0764516
0.0771037
0.0774892
0.0775993
0.0774261
0.0769631
0.0762049
0.0751473
0.0737876
0.072124
0.0701563
0.067885
0.0653121
0.0624406
0.0592743
0.0558158
0.0520687
0.0480674
0.0438422
0.0390003
0.0332132
0.0284134
0.0222937
0.0172438
0.0129082
0.00885679
0.00511163
0.00169906
-0.0013878
-0.00415682
-0.006614
-0.00876572
-0.0106188
-0.0121805
-0.0134579
-0.0144586
-0.0151901
-0.0156601
-0.0158763
-0.0158465
-0.0155784
-0.0150799
-0.014359
-0.0134235
-0.0122816
-0.0109412
-0.00941061
-0.00769821
-0.00581248
-0.00376215
-0.00155614
0.000796347
0.00328583
0.0059025
0.00863621
0.0114764
0.0144122
0.0174322
0.0205247
0.0236773
0.0268773
0.0301117
0.0333667
0.0366283
0.0398819
0.0431127
0.0463053
0.0494442
0.0525134
0.0554969
0.0583782
0.0611411
0.0637692
0.066246
0.0685556
0.070682
0.0726098
0.0743239
0.07581
0.0770542
0.0780436
0.0787663
0.0792112
0.0793684
0.079229
0.0787856
0.0780317
0.0769625
0.0755744
0.073865
0.0718334
0.0694798
0.066806
0.0638146
0.0605097
0.0568939
0.0529709
0.0487772
0.0443448
0.0392617
0.0331832
0.0273135
0.0209294
0.0156641
0.0111469
0.00692918
0.0030339
-0.00051152
-0.00371446
-0.00658338
-0.0091249
-0.0113461
-0.0132544
-0.0148578
-0.0161643
-0.0171822
-0.0179196
-0.0183851
-0.0185871
-0.0185339
-0.018234
-0.0176959
-0.016928
-0.0159387
-0.0147366
-0.0133302
-0.0117279
-0.00993857
-0.00797094
-0.00583397
-0.00353682
-0.00108887
0.00150024
0.00422056
0.00706182
0.0100134
0.0130641
0.0162027
0.0194171
0.022695
0.0260235
0.0293893
0.0327786
0.036177
0.0395697
0.0429416
0.0462769
0.0495596
0.0527734
0.0559015
0.0589272
0.0618332
0.0646026
0.0672182
0.069663
0.0719203
0.0739736
0.0758068
0.0774045
0.0787518
0.0798348
0.0806402
0.081156
0.081371
0.0812754
0.0808606
0.0801193
0.0790457
0.0776354
0.0758853
0.0737941
0.0713614
0.0685886
0.0654785
0.0620349
0.0582605
0.0541595
0.0497702
0.0451267
0.0397966
0.0334192
0.0258578
0.0192066
0.0137242
0.00902442
0.00463996
0.000594728
-0.00308281
-0.00640053
-0.00936753
-0.011991
-0.0142787
-0.0162389
-0.0178802
-0.0192114
-0.0202415
-0.0209795
-0.0214347
-0.0216162
-0.021533
-0.0211942
-0.020609
-0.0197862
-0.0187349
-0.0174641
-0.0159826
-0.0142994
-0.0124235
-0.0103641
-0.00813024
-0.00573141
-0.00317716
-0.000477298
0.00235809
0.00531858
0.00839343
0.0115715
0.0148411
0.0181904
0.0216067
0.025077
0.0285879
0.0321253
0.0356747
0.0392209
0.0427485
0.0462414
0.049683
0.0530566
0.0563448
0.0595303
0.0625951
0.0655215
0.0682914
0.0708871
0.0732906
0.0754846
0.0774519
0.079176
0.0806407
0.081831
0.0827324
0.0833315
0.0836162
0.0835755
0.0831995
0.0824801
0.0814104
0.0799851
0.0782005
0.0760545
0.0735465
0.0706773
0.0674497
0.0638676
0.0599337
0.0556524
0.051064
0.0462047
0.0406213
0.0339363
0.0240292
0.0171074
0.0114056
0.00652205
0.0019703
-0.00222477
-0.00603364
-0.00946471
-0.0125277
-0.0152305
-0.0175814
-0.0195896
-0.0212643
-0.0226152
-0.0236521
-0.0243849
-0.0248233
-0.0249774
-0.0248569
-0.0244716
-0.0238311
-0.0229451
-0.0218231
-0.0204744
-0.0189084
-0.0171346
-0.0151622
-0.0130006
-0.0106594
-0.00814804
-0.0054764
-0.00265442
0.000307657
0.0033993
0.00660961
0.00992734
0.0133408
0.0168378
0.0204058
0.0240316
0.0277014
0.0314011
0.0351158
0.0388303
0.0425285
0.0461941
0.0498102
0.0533593
0.0568235
0.0601848
0.0634247
0.0665243
0.069465
0.0722278
0.074794
0.0771449
0.0792623
0.0811284
0.082726
0.0840385
0.0850502
0.0857466
0.086114
0.0861403
0.0858146
0.0851274
0.0840709
0.0826388
0.0808267
0.0786318
0.0760528
0.0730905
0.0697472
0.066027
0.0619325
0.0574684
0.0526773
0.0475971
0.0417533
0.0347509
0.0218094
0.0146132
0.00868926
0.00362044
-0.00109933
-0.0054442
-0.00938358
-0.0129264
-0.0160831
-0.0188622
-0.0212727
-0.0233244
-0.0250276
-0.0263928
-0.0274304
-0.0281512
-0.0285658
-0.028685
-0.0285193
-0.0280791
-0.0273748
-0.0264165
-0.0252144
-0.0237782
-0.0221179
-0.0202433
-0.0181639
-0.0158896
-0.01343
-0.010795
-0.0079946
-0.00503889
-0.00193827
0.00129661
0.00465475
0.00812479
0.0116949
0.0153529
0.019086
0.0228809
0.0267237
0.0306
0.0344947
0.0383923
0.0422765
0.0461305
0.0499368
0.0536775
0.0573342
0.0608881
0.0643198
0.0676098
0.0707384
0.0736856
0.0764316
0.0789567
0.0812413
0.0832662
0.0850131
0.0864639
0.0876016
0.0884102
0.0888748
0.0889817
0.0887188
0.0880754
0.0870425
0.085613
0.0837813
0.081544
0.0788994
0.0758476
0.0723909
0.0685332
0.0642773
0.059628
0.0546301
0.0493234
0.0432113
0.0358807
0.0191797
0.0117043
0.00555525
0.000299338
-0.00458935
-0.00908403
-0.013153
-0.0168059
-0.0200537
-0.0229056
-0.0253715
-0.0274621
-0.0291883
-0.0305614
-0.0315931
-0.0322947
-0.0326778
-0.0327539
-0.0325344
-0.0320303
-0.0312528
-0.0302126
-0.0289204
-0.0273866
-0.0256216
-0.0236354
-0.0214382
-0.01904
-0.0164508
-0.0136807
-0.0107399
-0.00763855
-0.00438728
-0.000996849
0.00252166
0.00615679
0.00989665
0.0137289
0.0176407
0.0216186
0.0256486
0.029716
0.0338057
0.0379017
0.0419874
0.0460456
0.0500584
0.0540075
0.0578736
0.0616372
0.0652783
0.0687765
0.0721109
0.0752607
0.0782048
0.0809222
0.0833921
0.085594
0.0875079
0.0891144
0.0903951
0.0913323
0.0919096
0.0921119
0.0919257
0.091339
0.0903415
0.0889249
0.0870828
0.0848107
0.0821064
0.0789696
0.0754022
0.071408
0.0669899
0.0621529
0.0569439
0.0514048
0.045016
0.0373453
0.0161201
0.00836027
0.00198262
-0.00346243
-0.0085211
-0.0131656
-0.0173633
-0.0211242
-0.0244602
-0.0273813
-0.029898
-0.0320219
-0.033765
-0.0351395
-0.0361577
-0.0368321
-0.0371752
-0.0371993
-0.0369166
-0.036339
-0.0354782
-0.0343458
-0.032953
-0.0313107
-0.0294299
-0.0273211
-0.0249947
-0.0224611
-0.0197306
-0.0168136
-0.0137203
-0.0104612
-0.00704693
-0.00348842
0.000203196
0.00401638
0.00793917
0.0119591
0.0160634
0.0202383
0.0244699
0.0287433
0.0330429
0.0373528
0.0416559
0.0459346
0.0501707
0.0543451
0.0584381
0.0624294
0.0662982
0.070023
0.0735821
0.0769535
0.0801149
0.0830439
0.0857185
0.0881165
0.0902165
0.0919976
0.0934395
0.094523
0.0952302
0.0955443
0.0954502
0.0949344
0.0939853
0.0925933
0.0907508
0.0884526
0.0856956
0.0824789
0.078804
0.0746748
0.0700939
0.0650666
0.059642
0.0538643
0.0471894
0.0391657
0.0126097
0.00455961
-0.00205061
-0.00768714
-0.012917
-0.0177115
-0.0220367
-0.0259035
-0.0293246
-0.0323106
-0.034873
-0.0370243
-0.0387775
-0.0401457
-0.0411423
-0.0417808
-0.0420746
-0.0420369
-0.0416809
-0.0410192
-0.0400643
-0.0388286
-0.0373239
-0.0355618
-0.0335535
-0.0313103
-0.0288428
-0.0261619
-0.0232781
-0.0202018
-0.0169437
-0.0135144
-0.00992462
-0.00618528
-0.00230764
0.00169673
0.0058158
0.0100371
0.0143477
0.0187339
0.0231816
0.0276758
0.0322008
0.0367402
0.0412769
0.0457928
0.0502692
0.0546865
0.0590243
0.0632618
0.0673771
0.0713479
0.0751513
0.0787643
0.0821632
0.0853244
0.0882241
0.0908388
0.0931454
0.0951211
0.0967441
0.0979933
0.098849
0.0992927
0.0993076
0.0988784
0.0979922
0.0966378
0.0948065
0.092492
0.0896901
0.0863994
0.0826211
0.0783587
0.0736148
0.0683947
0.0627499
0.0567267
0.0497557
0.0413652
0.00862648
0.000279538
-0.00656765
-0.0123983
-0.0178007
-0.0227451
-0.0271968
-0.0311671
-0.0346697
-0.0377159
-0.0403183
-0.0424904
-0.0442461
-0.0455997
-0.0465657
-0.0471587
-0.047393
-0.0472829
-0.0468424
-0.0460852
-0.0450247
-0.0436739
-0.0420452
-0.040151
-0.0380031
-0.035613
-0.0329921
-0.0301513
-0.0271015
-0.0238535
-0.020418
-0.0168057
-0.0130275
-0.00909433
-0.00501755
-0.000808724
0.00352014
0.00795655
0.0124875
0.0170993
0.0217778
0.0265078
0.0312736
0.0360586
0.0408452
0.0456152
0.0503493
0.0550275
0.0596288
0.0641314
0.0685128
0.0727497
0.0768181
0.0806936
0.0843514
0.0877663
0.090913
0.0937663
0.0963013
0.0984934
0.100319
0.101755
0.102779
0.103372
0.103514
0.103189
0.102382
0.10108
0.0992725
0.0969525
0.0941149
0.0907572
0.0868802
0.0824869
0.07758
0.0721647
0.0662948
0.060019
0.0527414
0.0439691
0.00414705
-0.00450398
-0.011593
-0.0176206
-0.0231971
-0.0282916
-0.0328684
-0.0369396
-0.0405195
-0.0436208
-0.0462569
-0.0484423
-0.0501921
-0.051522
-0.0524474
-0.0529841
-0.0531478
-0.0529536
-0.0524167
-0.0515518
-0.050373
-0.0488942
-0.0471287
-0.0450895
-0.0427889
-0.040239
-0.0374515
-0.0344378
-0.031209
-0.0277762
-0.0241503
-0.0203419
-0.0163622
-0.0122221
-0.00793286
-0.00350614
0.00104612
0.00571146
0.0104769
0.0153288
0.0202528
0.0252338
0.0302561
0.0353026
0.0403559
0.0453971
0.0504068
0.0553642
0.0602479
0.0650354
0.0697032
0.074227
0.0785818
0.0827418
0.0866809
0.0903723
0.0937892
0.0969044
0.0996912
0.102123
0.104174
0.105819
0.107035
0.107798
0.108088
0.107886
0.107176
0.105942
0.104173
0.10186
0.0989968
0.0955801
0.0916099
0.0870889
0.0820193
0.0764065
0.0703067
0.0637708
0.0561752
0.0470052
-0.000853283
-0.00981642
-0.0171527
-0.0233805
-0.0291326
-0.0343774
-0.0390777
-0.0432467
-0.0468996
-0.05005
-0.0527126
-0.054903
-0.0566378
-0.0579336
-0.0588074
-0.0592763
-0.0593569
-0.0590659
-0.0584195
-0.0574333
-0.0561227
-0.0545022
-0.0525861
-0.050388
-0.0479209
-0.0451974
-0.0422297
-0.0390295
-0.0356082
-0.0319772
-0.0281473
-0.0241295
-0.0199349
-0.0155744
-0.0110593
-0.00640115
-0.00161179
0.0032964
0.00831047
0.0134169
0.0186013
0.0238486
0.029143
0.0344675
0.0398041
0.0451341
0.0504374
0.0556929
0.0608784
0.0659709
0.070946
0.0757783
0.0804418
0.0849094
0.0891534
0.0931454
0.0968569
0.100259
0.103322
0.106019
0.108321
0.1102
0.11163
0.112587
0.113047
0.11299
0.112395
0.111248