/*--------------------------------*- C++ -*----------------------------------*\
| =========                 |                                                 |
| \\      /  F ield         | OpenFOAM: The Open Source CFD Toolbox           |
|  \\    /   O peration     | Version:  2506                                  |
|   \\  /    A nd           | Website:  www.openfoam.com                      |
|    \\/     M anipulation  |                                                 |
\*---------------------------------------------------------------------------*/
FoamFile
{
    version     2.0;
    format      ascii;
    arch        "LSB;label=32;scalar=64";
    class       surfaceScalarField;
    location    "0.875";
    object      phi;
}
// * * * * * * * * * * * * * * * * * * * * * * * * * * * * * * * * * * * * * //

dimensions      [0 3 -1 0 0 0 0];

oriented        oriented;

internalField   nonuniform List<scalar> 
12640
(
1.90536e-10
-1.90861e-10
5.56775e-10
-3.66238e-10
8.84234e-10
-3.27458e-10
1.04741e-09
-1.63176e-10
9.8405e-10
6.33613e-11
6.67003e-10
3.17046e-10
8.937e-11
5.77632e-10
-7.43755e-10
8.33124e-10
-1.82016e-09
1.07641e-09
-3.12338e-09
1.30322e-09
-4.6344e-09
1.51102e-09
-6.33274e-09
1.69834e-09
-8.19714e-09
1.8644e-09
-1.02061e-08
2.00891e-09
-1.23379e-08
2.13189e-09
-1.45715e-08
2.23357e-09
-1.68859e-08
2.31437e-09
-1.92607e-08
2.37481e-09
-2.16762e-08
2.41552e-09
-2.41134e-08
2.43717e-09
-2.65539e-08
2.44048e-09
-2.89801e-08
2.42622e-09
-3.13753e-08
2.39518e-09
-3.37234e-08
2.34816e-09
-3.60094e-08
2.28598e-09
-3.82189e-08
2.20945e-09
-4.03383e-08
2.11943e-09
-4.2355e-08
2.01673e-09
-4.42572e-08
1.90221e-09
-4.60339e-08
1.77671e-09
-4.7675e-08
1.64108e-09
-4.91712e-08
1.49617e-09
-5.0514e-08
1.34284e-09
-5.1696e-08
1.18197e-09
-5.27104e-08
1.01444e-09
-5.35516e-08
8.41121e-10
-5.42145e-08
6.6293e-10
-5.46953e-08
4.80779e-10
-5.49909e-08
2.95599e-10
-5.50992e-08
1.08337e-10
-5.50192e-08
-8.00402e-11
-5.47506e-08
-2.6855e-10
-5.42945e-08
-4.56192e-10
-5.36525e-08
-6.41946e-10
-5.28277e-08
-8.24774e-10
-5.18241e-08
-1.00363e-09
-5.06467e-08
-1.17743e-09
-4.93016e-08
-1.34512e-09
-4.7796e-08
-1.50559e-09
-4.61382e-08
-1.65776e-09
-4.43377e-08
-1.80053e-09
-4.24049e-08
-1.93281e-09
-4.03514e-08
-2.05352e-09
-3.81898e-08
-2.16159e-09
-3.59338e-08
-2.25596e-09
-3.35982e-08
-2.33561e-09
-3.11987e-08
-2.39956e-09
-2.87518e-08
-2.44686e-09
-2.62752e-08
-2.47661e-09
-2.37872e-08
-2.48797e-09
-2.13071e-08
-2.48017e-09
-1.88546e-08
-2.45251e-09
-1.64502e-08
-2.40439e-09
-1.41149e-08
-2.33531e-09
-1.187e-08
-2.24489e-09
-9.73707e-09
-2.1329e-09
-7.7378e-09
-1.99927e-09
-5.89365e-09
-1.84415e-09
-4.22572e-09
-1.66794e-09
-2.75431e-09
-1.47142e-09
-1.49845e-09
-1.25586e-09
-4.75189e-10
-1.02325e-09
3.01486e-10
-7.76659e-10
8.22345e-10
-5.20857e-10
1.08576e-09
-2.63429e-10
1.10247e-09
-1.67408e-11
9.03612e-10
1.98848e-10
5.55033e-10
3.48593e-10
1.84088e-10
3.70974e-10
1.84103e-10
3.66472e-10
-5.57333e-10
8.87916e-10
-8.87683e-10
1.21931e-09
-6.5885e-10
1.13753e-09
-8.13997e-11
5.04815e-10
6.96081e-10
-7.52763e-10
1.57463e-09
-2.66442e-09
2.48929e-09
-5.22911e-09
3.39781e-09
-8.42539e-09
4.27269e-09
-1.22182e-08
5.09603e-09
-1.65634e-08
5.85623e-09
-2.1411e-08
6.54595e-09
-2.67074e-08
7.16074e-09
-3.23966e-08
7.69818e-09
-3.84221e-08
8.15731e-09
-4.47267e-08
8.53823e-09
-5.12542e-08
8.8418e-09
-5.79488e-08
9.06948e-09
-6.47565e-08
9.22316e-09
-7.16244e-08
9.30506e-09
-7.85016e-08
9.31765e-09
-8.53389e-08
9.26359e-09
-9.20894e-08
9.14569e-09
-9.87082e-08
8.96688e-09
-1.05152e-07
8.73014e-09
-1.11381e-07
8.43856e-09
-1.17357e-07
8.09524e-09
-1.23044e-07
7.70335e-09
-1.28408e-07
7.26609e-09
-1.33418e-07
6.78666e-09
-1.38045e-07
6.26833e-09
-1.42263e-07
5.71438e-09
-1.46049e-07
5.12813e-09
-1.49379e-07
4.51293e-09
-1.52237e-07
3.87217e-09
-1.54605e-07
3.2093e-09
-1.5647e-07
2.5278e-09
-1.57821e-07
1.83121e-09
-1.58648e-07
1.12313e-09
-1.58947e-07
4.07225e-10
-1.58714e-07
-3.12777e-10
-1.5795e-07
-1.03309e-09
-1.56656e-07
-1.74986e-09
-1.54839e-07
-2.45916e-09
-1.52507e-07
-3.15702e-09
-1.49671e-07
-3.83942e-09
-1.46346e-07
-4.50226e-09
-1.4255e-07
-5.14144e-09
-1.38303e-07
-5.75282e-09
-1.33628e-07
-6.33224e-09
-1.28553e-07
-6.87557e-09
-1.23107e-07
-7.37866e-09
-1.17323e-07
-7.83745e-09
-1.11237e-07
-8.24791e-09
-1.04887e-07
-8.60613e-09
-9.83142e-08
-8.90828e-09
-9.15631e-08
-9.15071e-09
-8.468e-08
-9.32992e-09
-7.7714e-08
-9.44265e-09
-7.07161e-08
-9.48587e-09
-6.37394e-08
-9.45684e-09
-5.68388e-08
-9.35316e-09
-5.00703e-08
-9.17281e-09
-4.34914e-08
-8.91423e-09
-3.716e-08
-8.57637e-09
-3.1134e-08
-8.15885e-09
-2.54713e-08
-7.66202e-09
-2.02282e-08
-7.08718e-09
-1.54593e-08
-6.43682e-09
-1.12158e-08
-5.71499e-09
-7.54379e-09
-4.92785e-09
-4.48255e-09
-4.0845e-09
-2.06099e-09
-3.19823e-09
-2.93306e-10
-2.28852e-09
8.27481e-10
-1.38419e-09
1.33907e-09
-5.28325e-10
1.32359e-09
2.14308e-10
9.25497e-10
7.46647e-10
3.7096e-10
9.25481e-10
5.55087e-10
3.30759e-10
-8.88091e-10
6.67471e-10
-1.2244e-09
6.14919e-10
-6.06299e-10
-8.80951e-11
6.21615e-10
-1.61257e-09
2.22056e-09
-4.05785e-09
4.0199e-09
-7.46839e-09
5.89983e-09
-1.18482e-08
7.77761e-09
-1.71719e-08
9.59637e-09
-2.3393e-08
1.13171e-08
-3.04502e-08
1.29135e-08
-3.82719e-08
1.43676e-08
-4.67795e-08
1.56683e-08
-5.589e-08
1.68087e-08
-6.55178e-08
1.77852e-08
-7.55764e-08
1.85969e-08
-8.59792e-08
1.92446e-08
-9.66404e-08
1.97307e-08
-1.07476e-07
2.00585e-08
-1.18403e-07
2.02323e-08
-1.29342e-07
2.02569e-08
-1.40216e-07
2.01377e-08
-1.50951e-07
1.98805e-08
-1.61475e-07
1.94913e-08
-1.71722e-07
1.89766e-08
-1.81626e-07
1.83427e-08
-1.91127e-07
1.75964e-08
-2.00168e-07
1.67444e-08
-2.08696e-07
1.57936e-08
-2.1666e-07
1.4751e-08
-2.24015e-07
1.36237e-08
-2.3072e-07
1.24188e-08
-2.36735e-07
1.11435e-08
-2.42027e-07
9.8052e-09
-2.46567e-07
8.41129e-09
-2.50327e-07
6.96931e-09
-2.53286e-07
5.48687e-09
-2.55426e-07
3.97174e-09
-2.56735e-07
2.43181e-09
-2.57203e-07
8.75066e-10
-2.56825e-07
-6.9033e-10
-2.55602e-07
-2.2561e-09
-2.53538e-07
-3.81385e-09
-2.50642e-07
-5.35501e-09
-2.46928e-07
-6.87095e-09
-2.42415e-07
-8.35289e-09
-2.37125e-07
-9.79198e-09
-2.31087e-07
-1.11793e-08
-2.24334e-07
-1.25059e-08
-2.16904e-07
-1.37628e-08
-2.08838e-07
-1.4941e-08
-2.00185e-07
-1.60317e-08
-1.90997e-07
-1.70261e-08
-1.81329e-07
-1.79156e-08
-1.71243e-07
-1.86918e-08
-1.60805e-07
-1.93466e-08
-1.50083e-07
-1.98723e-08
-1.39152e-07
-2.02614e-08
-1.28088e-07
-2.05071e-08
-1.1697e-07
-2.06032e-08
-1.05883e-07
-2.0544e-08
-9.49116e-08
-2.03247e-08
-8.4143e-08
-1.99414e-08
-7.3666e-08
-1.93912e-08
-6.35697e-08
-1.86727e-08
-5.39431e-08
-1.77855e-08
-4.48738e-08
-1.67314e-08
-3.64467e-08
-1.55142e-08
-2.87429e-08
-1.41406e-08
-2.18371e-08
-1.26207e-08
-1.57957e-08
-1.09693e-08
-1.06727e-08
-9.20751e-09
-6.50586e-09
-7.36509e-09
-3.31042e-09
-5.48396e-09
-1.07127e-09
-3.62332e-09
2.67546e-10
-1.86712e-09
8.1634e-10
-3.34484e-10
7.55303e-10
8.07665e-10
3.51341e-10
1.32941e-09
9.06439e-10
1.72169e-10
-1.06026e-09
1.05381e-10
-1.15761e-09
-5.87503e-10
8.65847e-11
-2.17066e-09
2.20478e-09
-4.82138e-09
4.87128e-09
-8.6461e-09
7.84463e-09
-1.36943e-08
1.0948e-08
-1.99709e-08
1.40542e-08
-2.74465e-08
1.7072e-08
-3.60659e-08
1.99366e-08
-4.57548e-08
2.26024e-08
-5.64248e-08
2.50376e-08
-6.79776e-08
2.72212e-08
-8.03084e-08
2.91394e-08
-9.3308e-08
3.07847e-08
-1.06865e-07
3.21538e-08
-1.20867e-07
3.32468e-08
-1.35203e-07
3.40664e-08
-1.49762e-07
3.46175e-08
-1.64436e-07
3.49065e-08
-1.7912e-07
3.4941e-08
-1.93712e-07
3.47297e-08
-2.08114e-07
3.4282e-08
-2.22231e-07
3.3608e-08
-2.35972e-07
3.27182e-08
-2.49253e-07
3.16236e-08
-2.61992e-07
3.03355e-08
-2.74113e-07
2.88653e-08
-2.85544e-07
2.7225e-08
-2.9622e-07
2.54263e-08
-3.06078e-07
2.34816e-08
-3.15062e-07
2.1403e-08
-3.23122e-07
1.92031e-08
-3.30211e-07
1.68946e-08
-3.3629e-07
1.44902e-08
-3.41324e-07
1.20031e-08
-3.45283e-07
9.44638e-09
-3.48145e-07
6.83351e-09
-3.49891e-07
4.17815e-09
-3.5051e-07
1.49415e-09
-3.49996e-07
-1.20441e-09
-3.48349e-07
-3.9032e-09
-3.45575e-07
-6.58771e-09
-3.41687e-07
-9.24319e-09
-3.36703e-07
-1.18547e-08
-3.30649e-07
-1.44072e-08
-3.23556e-07
-1.68854e-08
-3.15461e-07
-1.92741e-08
-3.06409e-07
-2.15578e-08
-2.96451e-07
-2.37211e-08
-2.85643e-07
-2.57488e-08
-2.74049e-07
-2.76258e-08
-2.61738e-07
-2.93369e-08
-2.48786e-07
-3.08678e-08
-2.35274e-07
-3.2204e-08
-2.21288e-07
-3.33319e-08
-2.06922e-07
-3.42385e-08
-1.92272e-07
-3.49114e-08
-1.7744e-07
-3.53391e-08
-1.62532e-07
-3.55113e-08
-1.47657e-07
-3.54189e-08
-1.32927e-07
-3.50542e-08
-1.18458e-07
-3.44111e-08
-1.04363e-07
-3.34855e-08
-9.07606e-08
-3.22755e-08
-7.77642e-08
-3.0782e-08
-6.54867e-08
-2.90089e-08
-5.40368e-08
-2.69642e-08
-4.35168e-08
-2.46606e-08
-3.40203e-08
-2.21172e-08
-2.5629e-08
-1.93606e-08
-1.84085e-08
-1.64279e-08
-1.24036e-08
-1.337e-08
-7.6313e-09
-1.02563e-08
-4.0734e-09
-7.18122e-09
-1.66664e-09
-4.27386e-09
-2.91121e-10
-1.70999e-09
2.42505e-10
2.7404e-10
2.08126e-10
1.36377e-09
1.11456e-09
-4.72884e-11
-1.01297e-09
-6.54325e-10
-5.50569e-10
-2.15927e-09
1.59153e-09
-4.80277e-09
4.84827e-09
-8.74912e-09
8.81763e-09
-1.40978e-08
1.31933e-08
-2.08937e-08
1.7744e-08
-2.91372e-08
2.22977e-08
-3.87927e-08
2.67274e-08
-4.97962e-08
3.09401e-08
-6.2062e-08
3.48682e-08
-7.54878e-08
3.84634e-08
-8.9959e-08
4.16924e-08
-1.05353e-07
4.4533e-08
-1.21539e-07
4.69717e-08
-1.38387e-07
4.90018e-08
-1.55763e-07
5.06219e-08
-1.73531e-07
5.18347e-08
-1.91559e-07
5.26461e-08
-2.09718e-07
5.30648e-08
-2.27878e-07
5.31013e-08
-2.45916e-07
5.27679e-08
-2.63713e-07
5.20783e-08
-2.81152e-07
5.10471e-08
-2.98124e-07
4.969e-08
-3.14523e-07
4.8023e-08
-3.30251e-07
4.6063e-08
-3.45213e-07
4.38274e-08
-3.59321e-07
4.13337e-08
-3.72495e-07
3.86001e-08
-3.84658e-07
3.56449e-08
-3.95742e-07
3.24867e-08
-4.05684e-07
2.91445e-08
-4.14427e-07
2.56376e-08
-4.21922e-07
2.19854e-08
-4.28126e-07
1.82078e-08
-4.33005e-07
1.43248e-08
-4.36528e-07
1.0357e-08
-4.38675e-07
6.32512e-09
-4.39431e-07
2.25019e-09
-4.38789e-07
-1.84633e-09
-4.3675e-07
-5.9427e-09
-4.33321e-07
-1.00168e-08
-4.28518e-07
-1.40464e-08
-4.22364e-07
-1.80088e-08
-4.1489e-07
-2.1881e-08
-4.06135e-07
-2.56402e-08
-3.96146e-07
-2.92631e-08
-3.84977e-07
-3.27265e-08
-3.72691e-07
-3.60072e-08
-3.59358e-07
-3.90823e-08
-3.45055e-07
-4.19288e-08
-3.29867e-07
-4.45245e-08
-3.13888e-07
-4.68473e-08
-2.97216e-07
-4.88761e-08
-2.79957e-07
-5.05904e-08
-2.62225e-07
-5.19707e-08
-2.44137e-07
-5.2999e-08
-2.25818e-07
-5.36583e-08
-2.07396e-07
-5.39336e-08
-1.89003e-07
-5.38118e-08
-1.70775e-07
-5.32819e-08
-1.52851e-07
-5.23357e-08
-1.35368e-07
-5.09679e-08
-1.18467e-07
-4.91768e-08
-1.02284e-07
-4.69649e-08
-8.69533e-08
-4.43397e-08
-7.26029e-08
-4.13145e-08
-5.93533e-08
-3.79103e-08
-4.73137e-08
-3.41568e-08
-3.65789e-08
-3.00953e-08
-2.7225e-08
-2.57819e-08
-1.93038e-08
-2.12913e-08
-1.28371e-08
-1.67229e-08
-7.80975e-09
-1.22086e-08
-4.16074e-09
-7.92288e-09
-1.7747e-09
-4.09601e-09
-4.72001e-10
-1.02864e-09
2.24407e-12
8.89524e-10
1.11678e-09
-2.94365e-10
-7.18607e-10
-1.51912e-09
6.74189e-10
-3.94323e-09
4.01563e-09
-7.766e-09
8.67105e-09
-1.31248e-08
1.41764e-08
-2.01011e-08
2.01696e-08
-2.87271e-08
2.63699e-08
-3.89928e-08
3.25634e-08
-5.08531e-08
3.85878e-08
-6.4234e-08
4.4321e-08
-7.90384e-08
4.96725e-08
-9.51511e-08
5.45761e-08
-1.12443e-07
5.89846e-08
-1.30776e-07
6.28657e-08
-1.50003e-07
6.61991e-08
-1.69975e-07
6.89734e-08
-1.90538e-07
7.1185e-08
-2.11539e-07
7.28359e-08
-2.32826e-07
7.3933e-08
-2.54248e-07
7.44869e-08
-2.75658e-07
7.45112e-08
-2.96913e-07
7.40222e-08
-3.17872e-07
7.3038e-08
-3.38404e-07
7.15784e-08
-3.58378e-07
6.96646e-08
-3.77674e-07
6.73187e-08
-3.96175e-07
6.4564e-08
-4.13772e-07
6.14242e-08
-4.30362e-07
5.79239e-08
-4.4585e-07
5.40881e-08
-4.60148e-07
4.99426e-08
-4.73174e-07
4.55132e-08
-4.84856e-07
4.08266e-08
-4.95128e-07
3.59096e-08
-5.03932e-07
3.07896e-08
-5.11219e-07
2.54943e-08
-5.16946e-07
2.00521e-08
-5.2108e-07
1.44914e-08
-5.23597e-07
8.8416e-09
-5.24479e-07
3.13209e-09
-5.23718e-07
-2.60705e-09
-5.21315e-07
-8.34537e-09
-5.1728e-07
-1.4052e-08
-5.11631e-07
-1.96956e-08
-5.04395e-07
-2.52445e-08
-4.95609e-07
-3.0667e-08
-4.85319e-07
-3.59306e-08
-4.73579e-07
-4.10033e-08
-4.60453e-07
-4.58527e-08
-4.46013e-07
-5.04465e-08
-4.30343e-07
-5.47528e-08
-4.13532e-07
-5.87399e-08
-3.95679e-07
-6.23767e-08
-3.76894e-07
-6.56331e-08
-3.5729e-07
-6.84796e-08
-3.36993e-07
-7.08881e-08
-3.16131e-07
-7.28321e-08
-2.94843e-07
-7.42867e-08
-2.73273e-07
-7.5229e-08
-2.51568e-07
-7.56387e-08
-2.29881e-07
-7.54983e-08
-2.0837e-07
-7.47935e-08
-1.87192e-07
-7.35138e-08
-1.66507e-07
-7.16529e-08
-1.46473e-07
-6.92099e-08
-1.27249e-07
-6.61895e-08
-1.08985e-07
-6.26036e-08
-9.1827e-08
-5.84724e-08
-7.59112e-08
-5.38261e-08
-6.13607e-08
-4.87072e-08
-4.82827e-08
-4.31734e-08
-3.67636e-08
-3.7301e-08
-2.68645e-08
-3.11904e-08
-1.86155e-08
-2.49719e-08
-1.20098e-08
-1.88143e-08
-6.99744e-09
-1.29353e-08
-3.47825e-09
-7.6152e-09
-1.29615e-09
-3.21072e-09
-2.32948e-10
-1.73668e-10
8.8382e-10
-5.5091e-10
-1.67699e-10
-2.43134e-09
2.55462e-09
-5.83462e-09
7.41891e-09
-1.09088e-08
1.37453e-08
-1.7755e-08
2.10226e-08
-2.64283e-08
2.88429e-08
-3.69416e-08
3.68832e-08
-4.92694e-08
4.48912e-08
-6.33534e-08
5.26718e-08
-7.91074e-08
6.0075e-08
-9.6422e-08
6.69871e-08
-1.15169e-07
7.33235e-08
-1.35207e-07
7.90223e-08
-1.56382e-07
8.40405e-08
-1.78533e-07
8.83498e-08
-2.01493e-07
9.19337e-08
-2.25093e-07
9.47855e-08
-2.49164e-07
9.69063e-08
-2.73534e-07
9.83034e-08
-2.98037e-07
9.89895e-08
-3.22507e-07
9.89812e-08
-3.46783e-07
9.82988e-08
-3.70711e-07
9.69654e-08
-3.94139e-07
9.50062e-08
-4.16922e-07
9.24484e-08
-4.38925e-07
8.93209e-08
-4.60014e-07
8.56539e-08
-4.80069e-07
8.14784e-08
-4.98971e-07
7.68266e-08
-5.16615e-07
7.17316e-08
-5.32899e-07
6.62271e-08
-5.47734e-07
6.03474e-08
-5.61035e-07
5.41276e-08
-5.72728e-07
4.76032e-08
-5.82749e-07
4.08106e-08
-5.91042e-07
3.37865e-08
-5.97558e-07
2.65682e-08
-6.0226e-07
1.91939e-08
-6.0512e-07
1.1702e-08
-6.0612e-07
4.13173e-09
-6.0525e-07
-3.47709e-09
-6.02511e-07
-1.10842e-08
-5.97915e-07
-1.86486e-08
-5.91481e-07
-2.6129e-08
-5.83242e-07
-3.34836e-08
-5.73239e-07
-4.06703e-08
-5.61523e-07
-4.76465e-08
-5.48157e-07
-5.43698e-08
-5.33212e-07
-6.07975e-08
-5.16771e-07
-6.68873e-08
-4.98927e-07
-7.25971e-08
-4.79781e-07
-7.78854e-08
-4.59446e-07
-8.27114e-08
-4.38044e-07
-8.70356e-08
-4.15704e-07
-9.08196e-08
-3.92565e-07
-9.40268e-08
-3.68775e-07
-9.66226e-08
-3.44487e-07
-9.85749e-08
-3.19861e-07
-9.98542e-08
-2.95066e-07
-1.00435e-07
-2.7027e-07
-1.00294e-07
-2.4565e-07
-9.94137e-08
-2.21382e-07
-9.77819e-08
-1.97643e-07
-9.53915e-08
-1.74611e-07
-9.22423e-08
-1.52459e-07
-8.83421e-08
-1.31354e-07
-8.37078e-08
-1.11459e-07
-7.83674e-08
-9.29241e-08
-7.23614e-08
-7.58853e-08
-6.5746e-08
-6.04624e-08
-5.85963e-08
-4.67535e-08
-5.10099e-08
-3.48311e-08
-4.31127e-08
-2.47374e-08
-3.50656e-08
-1.64795e-08
-2.70722e-08
-1.00247e-08
-1.93901e-08
-5.29659e-09
-1.23433e-08
-2.17182e-09
-6.3355e-09
-4.79033e-10
-1.86644e-09
4.04787e-10
-8.07052e-10
6.39352e-10
-3.35618e-09
5.10375e-09
-7.76616e-09
1.18289e-08
-1.41297e-08
2.01088e-08
-2.25059e-08
2.93988e-08
-3.29181e-08
3.92551e-08
-4.53542e-08
4.93193e-08
-5.97692e-08
5.93062e-08
-7.60882e-08
6.89908e-08
-9.42103e-08
7.8197e-08
-1.14012e-07
8.67892e-08
-1.35353e-07
9.46644e-08
-1.58077e-07
1.01746e-07
-1.82017e-07
1.0798e-07
-2.06998e-07
1.1333e-07
-2.32838e-07
1.17774e-07
-2.59354e-07
1.21301e-07
-2.86359e-07
1.23912e-07
-3.13669e-07
1.25614e-07
-3.41101e-07
1.26421e-07
-3.68473e-07
1.26353e-07
-3.95609e-07
1.25436e-07
-4.2234e-07
1.23696e-07
-4.48499e-07
1.21165e-07
-4.73928e-07
1.17877e-07
-4.98475e-07
1.13868e-07
-5.21996e-07
1.09176e-07
-5.44357e-07
1.03839e-07
-5.65428e-07
9.78977e-08
-5.85091e-07
9.13947e-08
-6.03236e-07
8.43721e-08
-6.19762e-07
7.68735e-08
-6.34578e-07
6.89433e-08
-6.47601e-07
6.06268e-08
-6.58761e-07
5.19699e-08
-6.67994e-07
4.30194e-08
-6.75248e-07
3.38228e-08
-6.80483e-07
2.44285e-08
-6.83666e-07
1.48855e-08
-6.84778e-07
5.24368e-09
-6.83809e-07
-4.44653e-09
-6.80759e-07
-1.41338e-08
-6.75642e-07
-2.37664e-08
-6.68479e-07
-3.32916e-08
-6.59306e-07
-4.26564e-08
-6.48169e-07
-5.18075e-08
-6.35124e-07
-6.06911e-08
-6.20241e-07
-6.92533e-08
-6.03598e-07
-7.74402e-08
-5.85287e-07
-8.51983e-08
-5.6541e-07
-9.24744e-08
-5.44079e-07
-9.92163e-08
-5.21418e-07
-1.05373e-07
-4.9756e-07
-1.10893e-07
-4.72649e-07
-1.15731e-07
-4.46837e-07
-1.19839e-07
-4.20285e-07
-1.23174e-07
-3.93163e-07
-1.25697e-07
-3.65647e-07
-1.2737e-07
-3.37919e-07
-1.28163e-07
-3.10166e-07
-1.28046e-07
-2.8258e-07
-1.27e-07
-2.55354e-07
-1.25008e-07
-2.2868e-07
-1.22065e-07
-2.02753e-07
-1.18169e-07
-1.77762e-07
-1.13334e-07
-1.53889e-07
-1.07581e-07
-1.3131e-07
-1.00946e-07
-1.10191e-07
-9.3481e-08
-9.06802e-08
-8.52566e-08
-7.29113e-08
-7.63651e-08
-5.69956e-08
-6.69256e-08
-4.30194e-08
-5.70889e-08
-3.10404e-08
-4.70446e-08
-2.10839e-08
-3.70287e-08
-1.31401e-08
-2.7334e-08
-7.16152e-09
-1.83219e-08
-3.06346e-09
-1.04336e-08
-7.25752e-10
-4.20416e-09
-3.20956e-10
-1.0577e-09
1.69705e-09
-4.27334e-09
8.31939e-09
-9.69594e-09
1.72515e-08
-1.73624e-08
2.77753e-08
-2.72874e-08
3.93238e-08
-3.94587e-08
5.14264e-08
-5.38359e-08
6.36965e-08
-7.03505e-08
7.58208e-08
-8.89081e-08
8.75484e-08
-1.09391e-07
9.86798e-08
-1.3166e-07
1.09059e-07
-1.55561e-07
1.18565e-07
-1.80924e-07
1.27109e-07
-2.07567e-07
1.34624e-07
-2.35303e-07
1.41066e-07
-2.63935e-07
1.46407e-07
-2.93267e-07
1.50633e-07
-3.23099e-07
1.53743e-07
-3.5323e-07
1.55745e-07
-3.83465e-07
1.56655e-07
-4.13608e-07
1.56496e-07
-4.4347e-07
1.55297e-07
-4.72865e-07
1.53091e-07
-5.01617e-07
1.49916e-07
-5.29552e-07
1.45813e-07
-5.56508e-07
1.40824e-07
-5.82328e-07
1.34996e-07
-6.06866e-07
1.28376e-07
-6.29983e-07
1.21015e-07
-6.5155e-07
1.12962e-07
-6.71448e-07
1.0427e-07
-6.89568e-07
9.4993e-08
-7.0581e-07
8.51853e-08
-7.20085e-07
7.49023e-08
-7.32316e-07
6.42009e-08
-7.42435e-07
5.31386e-08
-7.50386e-07
4.17739e-08
-7.56124e-07
3.01663e-08
-7.59615e-07
1.83762e-08
-7.60836e-07
6.46509e-09
-7.59778e-07
-5.50495e-09
-7.56441e-07
-1.74708e-08
-7.50839e-07
-2.93686e-08
-7.42996e-07
-4.11338e-08
-7.32952e-07
-5.27012e-08
-7.20754e-07
-6.40051e-08
-7.06466e-07
-7.49796e-08
-6.9016e-07
-8.55584e-08
-6.71925e-07
-9.56757e-08
-6.51857e-07
-1.05266e-07
-6.30068e-07
-1.14263e-07
-6.0668e-07
-1.22605e-07
-5.81825e-07
-1.30227e-07
-5.55649e-07
-1.3707e-07
-5.28306e-07
-1.43074e-07
-4.99961e-07
-1.48184e-07
-4.70788e-07
-1.52347e-07
-4.40971e-07
-1.55514e-07
-4.10698e-07
-1.57643e-07
-3.80168e-07
-1.58693e-07
-3.49581e-07
-1.58633e-07
-3.19144e-07
-1.57437e-07
-2.89064e-07
-1.55088e-07
-2.5955e-07
-1.51578e-07
-2.30811e-07
-1.46909e-07
-2.03049e-07
-1.41096e-07
-1.76462e-07
-1.34167e-07
-1.51241e-07
-1.26167e-07
-1.27564e-07
-1.17158e-07
-1.05595e-07
-1.07226e-07
-8.54807e-08
-9.64792e-08
-6.73482e-08
-8.50581e-08
-5.13e-08
-7.31371e-08
-3.74124e-08
-6.09322e-08
-2.57323e-08
-4.87087e-08
-1.62765e-08
-3.67899e-08
-9.03033e-09
-2.55681e-08
-3.95019e-09
-1.55137e-08
-9.67732e-10
-7.18663e-09
-1.28868e-09
-1.30043e-09
2.99748e-09
-5.17165e-09
1.21906e-08
-1.1599e-08
2.36789e-08
-2.05656e-08
3.67418e-08
-3.2041e-08
5.07992e-08
-4.59757e-08
6.53611e-08
-6.22982e-08
8.0019e-08
-8.09142e-08
9.44369e-08
-1.01707e-07
1.08342e-07
-1.24541e-07
1.21513e-07
-1.49259e-07
1.33777e-07
-1.75691e-07
1.44997e-07
-2.03653e-07
1.55071e-07
-2.3295e-07
1.63921e-07
-2.6338e-07
1.71496e-07
-2.94734e-07
1.77761e-07
-3.26802e-07
1.82701e-07
-3.59371e-07
1.86312e-07
-3.92228e-07
1.88602e-07
-4.25162e-07
1.8959e-07
-4.57968e-07
1.89302e-07
-4.90443e-07
1.87772e-07
-5.22389e-07
1.85038e-07
-5.53617e-07
1.81144e-07
-5.83943e-07
1.76139e-07
-6.13193e-07
1.70074e-07
-6.412e-07
1.63003e-07
-6.67807e-07
1.54983e-07
-6.92866e-07
1.46074e-07
-7.16239e-07
1.36335e-07
-7.37799e-07
1.2583e-07
-7.57429e-07
1.14623e-07
-7.75023e-07
1.02779e-07
-7.90485e-07
9.03645e-08
-8.03732e-07
7.74482e-08
-8.14692e-07
6.40988e-08
-8.23305e-07
5.03869e-08
-8.29523e-07
3.63838e-08
-8.33309e-07
2.21621e-08
-8.34639e-07
7.79544e-09
-8.33503e-07
-6.64138e-09
-8.29901e-07
-2.10727e-08
-8.23848e-07
-3.54218e-08
-8.1537e-07
-4.96113e-08
-8.04508e-07
-6.35629e-08
-7.91316e-07
-7.7198e-08
-7.75858e-07
-9.04376e-08
-7.58214e-07
-1.03202e-07
-7.38476e-07
-1.15413e-07
-7.1675e-07
-1.26992e-07
-6.93154e-07
-1.3786e-07
-6.67816e-07
-1.47942e-07
-6.40881e-07
-1.57162e-07
-6.12502e-07
-1.65449e-07
-5.82845e-07
-1.72731e-07
-5.52085e-07
-1.78944e-07
-5.20408e-07
-1.84024e-07
-4.88009e-07
-1.87914e-07
-4.5509e-07
-1.90561e-07
-4.21863e-07
-1.91921e-07
-3.8854e-07
-1.91955e-07
-3.55344e-07
-1.90634e-07
-3.22494e-07
-1.87938e-07
-2.90214e-07
-1.83858e-07
-2.58725e-07
-1.78398e-07
-2.28246e-07
-1.71575e-07
-1.98988e-07
-1.63425e-07
-1.71155e-07
-1.54e-07
-1.44941e-07
-1.43373e-07
-1.20524e-07
-1.31643e-07
-9.80671e-08
-1.18936e-07
-7.77139e-08
-1.05411e-07
-5.95855e-08
-9.12656e-08
-4.3779e-08
-7.67387e-08
-3.03661e-08
-6.21216e-08
-1.93922e-08
-4.77637e-08
-1.08776e-08
-3.40827e-08
-4.82044e-09
-2.15709e-08
-1.2024e-09
-1.08047e-08
-2.49108e-09
-1.53439e-09
4.53188e-09
-6.04559e-09
1.67018e-08
-1.34617e-08
3.1095e-08
-2.3715e-08
4.69951e-08
-3.67308e-08
6.38149e-08
-5.24216e-08
8.10519e-08
-7.06836e-08
9.82809e-08
-9.13948e-08
1.15148e-07
-1.14415e-07
1.31362e-07
-1.39586e-07
1.46684e-07
-1.66735e-07
1.60926e-07
-1.95673e-07
1.73936e-07
-2.26202e-07
1.85599e-07
-2.58112e-07
1.95831e-07
-2.91187e-07
2.04571e-07
-3.25206e-07
2.1178e-07
-3.59944e-07
2.1744e-07
-3.95178e-07
2.21545e-07
-4.30681e-07
2.24105e-07
-4.66232e-07
2.25141e-07
-5.01612e-07
2.24682e-07
-5.36606e-07
2.22767e-07
-5.71008e-07
2.1944e-07
-6.04616e-07
2.14752e-07
-6.37237e-07
2.0876e-07
-6.68685e-07
2.01522e-07
-6.98785e-07
1.93103e-07
-7.2737e-07
1.83569e-07
-7.54285e-07
1.72988e-07
-7.79382e-07
1.61433e-07
-8.02528e-07
1.48976e-07
-8.23598e-07
1.35693e-07
-8.42481e-07
1.21661e-07
-8.59075e-07
1.06959e-07
-8.73293e-07
9.16656e-08
-8.85057e-07
7.58632e-08
-8.94304e-07
5.96342e-08
-9.00984e-07
4.3063e-08
-9.05056e-07
2.62348e-08
-9.06497e-07
9.2364e-09
-9.05294e-07
-7.84426e-09
-9.01449e-07
-2.49181e-08
-8.94976e-07
-4.18949e-08
-8.85903e-07
-5.86837e-08
-8.74274e-07
-7.51925e-08
-8.60143e-07
-9.13288e-08
-8.43581e-07
-1.07e-07
-8.24671e-07
-1.22112e-07
-8.03511e-07
-1.36574e-07
-7.80211e-07
-1.50292e-07
-7.54896e-07
-1.63175e-07
-7.27703e-07
-1.75134e-07
-6.98784e-07
-1.86082e-07
-6.683e-07
-1.95933e-07
-6.36426e-07
-2.04605e-07
-6.03348e-07
-2.12022e-07
-5.69263e-07
-2.18109e-07
-5.34376e-07
-2.22801e-07
-4.98901e-07
-2.26035e-07
-4.63061e-07
-2.27761e-07
-4.27083e-07
-2.27933e-07
-3.91199e-07
-2.26518e-07
-3.55644e-07
-2.23493e-07
-3.20655e-07
-2.18847e-07
-2.86466e-07
-2.12587e-07
-2.53309e-07
-2.04732e-07
-2.21411e-07
-1.95323e-07
-1.9099e-07
-1.84421e-07
-1.62254e-07
-1.72108e-07
-1.35399e-07
-1.58498e-07
-1.10604e-07
-1.43731e-07
-8.80302e-08
-1.27985e-07
-6.78203e-08
-1.11475e-07
-5.00942e-08
-9.44648e-08
-3.49499e-08
-7.7266e-08
-2.24631e-08
-6.02505e-08
-1.26896e-08
-4.38561e-08
-5.66854e-09
-2.8592e-08
-1.42881e-09
-1.50444e-08
-3.9199e-09
-1.75955e-09
6.29142e-09
-6.89317e-09
2.18354e-08
-1.52777e-08
3.94796e-08
-2.6798e-08
5.85154e-08
-4.13368e-08
7.83537e-08
-5.8769e-08
9.84841e-08
-7.89576e-08
1.1847e-07
-1.01752e-07
1.37942e-07
-1.26986e-07
1.56596e-07
-1.5448e-07
1.74179e-07
-1.84041e-07
1.90487e-07
-2.15463e-07
2.05358e-07
-2.48531e-07
2.18667e-07
-2.8302e-07
2.3032e-07
-3.187e-07
2.40251e-07
-3.55337e-07
2.48417e-07
-3.92694e-07
2.54797e-07
-4.30533e-07
2.59384e-07
-4.68619e-07
2.62191e-07
-5.06717e-07
2.63239e-07
-5.44598e-07
2.62563e-07
-5.82037e-07
2.60206e-07
-6.18817e-07
2.56219e-07
-6.54725e-07
2.50661e-07
-6.8956e-07
2.43594e-07
-7.23127e-07
2.35089e-07
-7.55241e-07
2.25218e-07
-7.85729e-07
2.14056e-07
-8.14426e-07
2.01685e-07
-8.4118e-07
1.88186e-07
-8.65848e-07
1.73644e-07
-8.88301e-07
1.58146e-07
-9.08421e-07
1.41781e-07
-9.26102e-07
1.2464e-07
-9.41253e-07
1.06816e-07
-9.53791e-07
8.84018e-08
-9.63651e-07
6.94943e-08
-9.70779e-07
5.01906e-08
-9.75134e-07
3.05896e-08
-9.76689e-07
1.07917e-08
-9.75432e-07
-9.10131e-09
-9.71364e-07
-2.89864e-08
-9.64499e-07
-4.87592e-08
-9.54869e-07
-6.83143e-08
-9.42516e-07
-8.75456e-08
-9.27499e-07
-1.06346e-07
-9.0989e-07
-1.24608e-07
-8.89778e-07
-1.42224e-07
-8.67263e-07
-1.59088e-07
-8.42463e-07
-1.75092e-07
-8.15506e-07
-1.90132e-07
-7.86538e-07
-2.04103e-07
-7.55715e-07
-2.16905e-07
-7.23208e-07
-2.2844e-07
-6.892e-07
-2.38613e-07
-6.53885e-07
-2.47336e-07
-6.17471e-07
-2.54524e-07
-5.80172e-07
-2.601e-07
-5.42213e-07
-2.63994e-07
-5.03829e-07
-2.66146e-07
-4.65257e-07
-2.66505e-07
-4.26742e-07
-2.65033e-07
-3.88533e-07
-2.61702e-07
-3.50877e-07
-2.56503e-07
-3.14024e-07
-2.4944e-07
-2.78219e-07
-2.40537e-07
-2.43704e-07
-2.29839e-07
-2.10711e-07
-2.17413e-07
-1.79466e-07
-2.03353e-07
-1.5018e-07
-1.87784e-07
-1.23051e-07
-1.7086e-07
-9.82611e-08
-1.52775e-07
-7.59734e-08
-1.33763e-07
-5.63329e-08
-1.14105e-07
-3.94652e-08
-9.41337e-08
-2.54774e-08
-7.42383e-08
-1.44603e-08
-5.48732e-08
-6.49263e-09
-3.65597e-08
-1.64695e-09
-1.98901e-08
-5.56685e-09
-1.97638e-09
8.26781e-09
-7.71462e-09
2.75737e-08
-1.70456e-08
4.88105e-08
-2.98102e-08
7.128e-08
-4.58506e-08
9.43941e-08
-6.50047e-08
1.17638e-07
-8.71025e-08
1.40567e-07
-1.11964e-07
1.62804e-07
-1.39397e-07
1.84029e-07
-1.69198e-07
2.0398e-07
-2.01154e-07
2.22442e-07
-2.35039e-07
2.39243e-07
-2.70621e-07
2.54249e-07
-3.07661e-07
2.67359e-07
-3.45913e-07
2.78503e-07
-3.8513e-07
2.87634e-07
-4.25062e-07
2.94729e-07
-4.6546e-07
2.99782e-07
-5.06076e-07
3.02807e-07
-5.46666e-07
3.03828e-07
-5.86988e-07
3.02886e-07
-6.2681e-07
3.00027e-07
-6.65902e-07
2.95311e-07
-7.04046e-07
2.88804e-07
-7.41028e-07
2.80577e-07
-7.76648e-07
2.70709e-07
-8.10713e-07
2.59282e-07
-8.4304e-07
2.46384e-07
-8.7346e-07
2.32105e-07
-9.01813e-07
2.16539e-07
-9.27951e-07
1.99782e-07
-9.51739e-07
1.81934e-07
-9.73054e-07
1.63096e-07
-9.91786e-07
1.43373e-07
-1.00784e-06
1.22869e-07
-1.02113e-06
1.01691e-07
-1.03158e-06
7.99506e-08
-1.03915e-06
5.77574e-08
-1.04379e-06
3.52247e-08
-1.04546e-06
1.2467e-08
-1.04416e-06
-1.03995e-08
-1.03989e-06
-3.32573e-08
-1.03266e-06
-5.59872e-08
-1.02251e-06
-7.84692e-08
-1.00947e-06
-1.00582e-07
-9.93616e-07
-1.22203e-07
-9.75013e-07
-1.43211e-07
-9.53754e-07
-1.63483e-07
-9.29946e-07
-1.82896e-07
-9.03709e-07
-2.0133e-07
-8.75177e-07
-2.18663e-07
-8.445e-07
-2.34779e-07
-8.11843e-07
-2.49562e-07
-7.77382e-07
-2.62901e-07
-7.41309e-07
-2.74687e-07
-7.03825e-07
-2.8482e-07
-6.65146e-07
-2.93203e-07
-6.25496e-07
-2.99749e-07
-5.85112e-07
-3.04378e-07
-5.44236e-07
-3.07022e-07
-5.03119e-07
-3.07622e-07
-4.62017e-07
-3.06134e-07
-4.21191e-07
-3.02529e-07
-3.80901e-07
-2.96793e-07
-3.4141e-07
-2.88931e-07
-3.02978e-07
-2.78969e-07
-2.65861e-07
-2.66956e-07
-2.30309e-07
-2.52965e-07
-1.96562e-07
-2.371e-07
-1.64851e-07
-2.19495e-07
-1.35393e-07
-2.00318e-07
-1.08391e-07
-1.79777e-07
-8.40313e-08
-1.58123e-07
-6.2485e-08
-1.35652e-07
-4.39057e-08
-1.12713e-07
-2.84319e-08
-8.97121e-08
-1.6189e-08
-6.71162e-08
-7.29319e-09
-4.54555e-08
-1.85736e-09
-2.53259e-08
-7.42421e-09
-2.18564e-09
1.04534e-08
-8.51147e-09
3.38995e-08
-1.87669e-08
5.9066e-08
-3.27523e-08
8.52653e-08
-5.02711e-08
1.11913e-07
-7.11257e-08
1.38493e-07
-9.51132e-08
1.64555e-07
-1.22024e-07
1.89714e-07
-1.51638e-07
2.13644e-07
-1.8373e-07
2.36072e-07
-2.18062e-07
2.56775e-07
-2.54392e-07
2.75572e-07
-2.92468e-07
2.92325e-07
-3.32034e-07
3.06926e-07
-3.72831e-07
3.193e-07
-4.14598e-07
3.29401e-07
-4.57071e-07
3.37202e-07
-4.99989e-07
3.42701e-07
-5.43093e-07
3.45911e-07
-5.86128e-07
3.46864e-07
-6.28844e-07
3.45601e-07
-6.70997e-07
3.4218e-07
-7.1235e-07
3.36664e-07
-7.52674e-07
3.29128e-07
-7.9175e-07
3.19653e-07
-8.29368e-07
3.08327e-07
-8.65329e-07
2.95243e-07
-8.99445e-07
2.80499e-07
-9.31537e-07
2.64197e-07
-9.61442e-07
2.46444e-07
-9.89007e-07
2.27346e-07
-1.01409e-06
2.07018e-07
-1.03657e-06
1.85572e-07
-1.05632e-06
1.63127e-07
-1.07325e-06
1.398e-07
-1.08727e-06
1.15714e-07
-1.09832e-06
9.09915e-08
-1.10632e-06
6.57581e-08
-1.11123e-06
4.01411e-08
-1.11304e-06
1.42697e-08
-1.11171e-06
-1.17251e-08
-1.10726e-06
-3.77108e-08
-1.09969e-06
-6.35531e-08
-1.08904e-06
-8.91165e-08
-1.07536e-06
-1.14264e-07
-1.0587e-06
-1.38859e-07
-1.03915e-06
-1.62763e-07
-1.0168e-06
-1.85837e-07
-9.9175e-07
-2.07945e-07
-9.64131e-07
-2.28948e-07
-9.34082e-07
-2.48713e-07
-9.01756e-07
-2.67105e-07
-8.67324e-07
-2.83995e-07
-8.30968e-07
-2.99257e-07
-7.92886e-07
-3.12769e-07
-7.53288e-07
-3.24418e-07
-7.12397e-07
-3.34094e-07
-6.70447e-07
-3.41699e-07
-6.27683e-07
-3.47142e-07
-5.84358e-07
-3.50347e-07
-5.40733e-07
-3.51247e-07
-4.97076e-07
-3.49791e-07
-4.5366e-07
-3.45946e-07
-4.10758e-07
-3.39695e-07
-3.68647e-07
-3.31042e-07
-3.27602e-07
-3.20014e-07
-2.87894e-07
-3.06664e-07
-2.49788e-07
-2.9107e-07
-2.13545e-07
-2.73344e-07
-1.79412e-07
-2.53627e-07
-1.47629e-07
-2.32102e-07
-1.18419e-07
-2.08987e-07
-9.19942e-08
-1.84547e-07
-6.85514e-08
-1.59094e-07
-4.82733e-08
-1.32991e-07
-3.13292e-08
-1.06656e-07
-1.78783e-08
-8.05671e-08
-8.07222e-09
-5.52615e-08
-2.06092e-09
-3.13372e-08
-9.48513e-09
-2.3882e-09
1.28417e-08
-9.28605e-09
4.07973e-08
-2.04453e-08
7.02253e-08
-3.56286e-08
1.00449e-07
-5.4603e-08
1.30887e-07
-7.7136e-08
1.61026e-07
-1.02993e-07
1.90412e-07
-1.31934e-07
2.18655e-07
-1.63713e-07
2.45423e-07
-1.98078e-07
2.70437e-07
-2.34772e-07
2.93468e-07
-2.73528e-07
3.14329e-07
-3.1408e-07
3.32876e-07
-3.56152e-07
3.48999e-07
-3.99472e-07
3.6262e-07
-4.43762e-07
3.73691e-07
-4.88747e-07
3.82187e-07
-5.34154e-07
3.88107e-07
-5.79712e-07
3.91469e-07
-6.25156e-07
3.92307e-07
-6.70226e-07
3.90671e-07
-7.14668e-07
3.86622e-07
-7.58238e-07
3.80234e-07
-8.00698e-07
3.71589e-07
-8.41823e-07
3.60778e-07
-8.81395e-07
3.47899e-07
-9.19208e-07
3.33057e-07
-9.55068e-07
3.1636e-07
-9.88793e-07
2.97922e-07
-1.02021e-06
2.77862e-07
-1.04917e-06
2.56302e-07
-1.07551e-06
2.33365e-07
-1.09912e-06
2.09181e-07
-1.11988e-06
1.83879e-07
-1.13767e-06
1.57592e-07
-1.15241e-06
1.30456e-07
-1.16403e-06
1.02609e-07
-1.17246e-06
7.41904e-08
-1.17766e-06
4.53422e-08