/*--------------------------------*- C++ -*----------------------------------*\
| =========                 |                                                 |
| \\      /  F ield         | OpenFOAM: The Open Source CFD Toolbox           |
|  \\    /   O peration     | Version:  2506                                  |
|   \\  /    A nd           | Website:  www.openfoam.com                      |
|    \\/     M anipulation  |                                                 |
\*---------------------------------------------------------------------------*/
FoamFile
{
    version     2.0;
    format      ascii;
    arch        "LSB;label=32;scalar=64";
    class       volVectorField;
    location    "0.875";
    object      U;
}
// * * * * * * * * * * * * * * * * * * * * * * * * * * * * * * * * * * * * * //

dimensions      [0 1 -1 0 0 0 0];

internalField   nonuniform List<vector> 
6400
(
(7.24972e-06 -7.25895e-06 0)
(2.98215e-05 -1.44538e-05 0)
(5.93444e-05 -1.41839e-05 0)
(8.06756e-05 -9.741e-06 0)
(8.55317e-05 -3.43061e-06 0)
(7.06616e-05 3.54407e-06 0)
(3.49392e-05 1.05678e-05 0)
(-2.16044e-05 1.73218e-05 0)
(-9.82145e-05 2.36433e-05 0)
(-0.000193701 2.94506e-05 0)
(-0.000306618 3.47054e-05 0)
(-0.000435367 3.93927e-05 0)
(-0.000578267 4.35114e-05 0)
(-0.000733598 4.70682e-05 0)
(-0.000899629 5.00749e-05 0)
(-0.00107464 5.25467e-05 0)
(-0.00125695 5.45007e-05 0)
(-0.0014449 5.59555e-05 0)
(-0.00163688 5.69307e-05 0)
(-0.00183134 5.74464e-05 0)
(-0.00202679 5.75229e-05 0)
(-0.00222179 5.71809e-05 0)
(-0.00241496 5.64409e-05 0)
(-0.002605 5.53236e-05 0)
(-0.00279065 5.38494e-05 0)
(-0.00297073 5.20388e-05 0)
(-0.00314414 4.99119e-05 0)
(-0.00330983 4.7489e-05 0)
(-0.0034668 4.47901e-05 0)
(-0.00361416 4.1835e-05 0)
(-0.00375106 3.86438e-05 0)
(-0.00387673 3.52363e-05 0)
(-0.00399044 3.16325e-05 0)
(-0.00409157 2.78525e-05 0)
(-0.00417955 2.39166e-05 0)
(-0.00425387 1.98451e-05 0)
(-0.00431412 1.5659e-05 0)
(-0.00435994 1.13793e-05 0)
(-0.00439104 7.02728e-06 0)
(-0.00440723 2.62497e-06 0)
(-0.00440837 -1.80539e-06 0)
(-0.00439442 -6.24103e-06 0)
(-0.0043654 -1.06587e-05 0)
(-0.00432143 -1.50347e-05 0)
(-0.0042627 -1.93447e-05 0)
(-0.00418947 -2.35643e-05 0)
(-0.00410212 -2.76681e-05 0)
(-0.00400109 -3.16309e-05 0)
(-0.00388691 -3.54269e-05 0)
(-0.00376021 -3.903e-05 0)
(-0.00362168 -4.24141e-05 0)
(-0.00347213 -4.55531e-05 0)
(-0.00331245 -4.84208e-05 0)
(-0.00314359 -5.09913e-05 0)
(-0.00296661 -5.32391e-05 0)
(-0.00278266 -5.51389e-05 0)
(-0.00259294 -5.66663e-05 0)
(-0.00239876 -5.77975e-05 0)
(-0.00220148 -5.85097e-05 0)
(-0.00200253 -5.87813e-05 0)
(-0.00180344 -5.85917e-05 0)
(-0.00160575 -5.7922e-05 0)
(-0.00141108 -5.67546e-05 0)
(-0.00122109 -5.50742e-05 0)
(-0.00103748 -5.28671e-05 0)
(-0.000861961 -5.01225e-05 0)
(-0.000696272 -4.6832e-05 0)
(-0.000542143 -4.2991e-05 0)
(-0.000401283 -3.85989e-05 0)
(-0.000275356 -3.36619e-05 0)
(-0.000165949 -2.81949e-05 0)
(-7.45224e-05 -2.22276e-05 0)
(-2.3452e-06 -1.58142e-05 0)
(4.96127e-05 -9.05204e-06 0)
(8.08561e-05 -2.12066e-06 0)
(9.165e-05 4.64569e-06 0)
(8.34422e-05 1.06214e-05 0)
(5.98024e-05 1.46091e-05 0)
(2.92487e-05 1.4363e-05 0)
(6.87573e-06 6.87357e-06 0)
(1.44643e-05 -2.98312e-05 0)
(5.15895e-05 -5.15243e-05 0)
(8.98943e-05 -4.41007e-05 0)
(0.000103645 -1.91135e-05 0)
(7.71218e-05 1.53151e-05 0)
(2.46269e-06 5.41506e-05 0)
(-0.000124036 9.43109e-05 0)
(-0.000303292 0.000133905 0)
(-0.000534261 0.000171772 0)
(-0.000814578 0.000207195 0)
(-0.001141 0.000239735 0)
(-0.00150971 0.000269131 0)
(-0.00191653 0.000295237 0)
(-0.00235704 0.000317988 0)
(-0.00282674 0.000337374 0)
(-0.00332105 0.000353422 0)
(-0.00383542 0.000366189 0)
(-0.00436538 0.000375752 0)
(-0.00490652 0.000382203 0)
(-0.00545456 0.000385645 0)
(-0.00600535 0.000386191 0)
(-0.00655488 0.000383957 0)
(-0.0070993 0.000379068 0)
(-0.00763493 0.000371647 0)
(-0.00815826 0.000361824 0)
(-0.00866597 0.000349729 0)
(-0.0091549 0.000335492 0)
(-0.00962208 0.000319247 0)
(-0.0100647 0.000301125 0)
(-0.0104803 0.000281261 0)
(-0.0108663 0.000259791 0)
(-0.0112206 0.000236848 0)
(-0.0115412 0.000212571 0)
(-0.0118263 0.000187098 0)
(-0.0120742 0.000160567 0)
(-0.0122835 0.00013312 0)
(-0.0124531 0.000104902 0)
(-0.0125819 7.60559e-05 0)
(-0.0126691 4.67316e-05 0)
(-0.0127143 1.70792e-05 0)
(-0.0127169 -1.2748e-05 0)
(-0.012677 -4.25939e-05 0)
(-0.0125946 -7.22994e-05 0)
(-0.01247 -0.000101703 0)
(-0.0123039 -0.00013064 0)
(-0.0120969 -0.000158944 0)
(-0.0118502 -0.000186445 0)
(-0.0115649 -0.000212973 0)
(-0.0112428 -0.000238356 0)
(-0.0108854 -0.000262421 0)
(-0.0104949 -0.000284995 0)
(-0.0100734 -0.000305905 0)
(-0.00962354 -0.00032498 0)
(-0.009148 -0.000342053 0)
(-0.00864975 -0.000356957 0)
(-0.008132 -0.000369531 0)
(-0.00759815 -0.000379621 0)
(-0.00705185 -0.000387077 0)
(-0.0064969 -0.000391759 0)
(-0.00593732 -0.000393537 0)
(-0.00537728 -0.000392289 0)
(-0.0048211 -0.00038791 0)
(-0.00427323 -0.000380305 0)
(-0.00373821 -0.000369402 0)
(-0.00322066 -0.000355143 0)
(-0.00272523 -0.000337497 0)
(-0.00225657 -0.000316463 0)
(-0.00181927 -0.000292071 0)
(-0.00141777 -0.000264401 0)
(-0.00105633 -0.000233591 0)
(-0.000738893 -0.000199861 0)
(-0.000468918 -0.000163552 0)
(-0.000249203 -0.000125183 0)
(-8.15765e-05 -8.55464e-05 0)
(3.35337e-05 -4.587e-05 0)
(9.7718e-05 -8.09232e-06 0)
(0.000115364 2.46983e-05 0)
(9.49481e-05 4.75474e-05 0)
(5.26567e-05 5.26099e-05 0)
(1.43597e-05 2.92256e-05 0)
(1.43024e-05 -5.9457e-05 0)
(4.46096e-05 -8.9956e-05 0)
(6.13433e-05 -6.0509e-05 0)
(3.56793e-05 6.71815e-06 0)
(-5.07622e-05 9.62999e-05 0)
(-0.000208206 0.000197573 0)
(-0.00044199 0.000303299 0)
(-0.000753822 0.000408638 0)
(-0.00114267 0.000510362 0)
(-0.00160552 0.000606326 0)
(-0.00213796 0.000695113 0)
(-0.0027346 0.000775805 0)
(-0.00338936 0.000847835 0)
(-0.00409574 0.000910878 0)
(-0.00484697 0.000964791 0)
(-0.00563613 0.00100956 0)
(-0.00645629 0.00104526 0)
(-0.00730053 0.00107205 0)
(-0.00816204 0.00109015 0)
(-0.00903414 0.00109979 0)
(-0.00991035 0.00110126 0)
(-0.0107844 0.00109487 0)
(-0.0116502 0.00108095 0)
(-0.0125019 0.00105983 0)
(-0.0133341 0.00103186 0)
(-0.0141413 0.000997414 0)
(-0.0149187 0.000956848 0)
(-0.0156615 0.000910536 0)
(-0.0163652 0.000858854 0)
(-0.0170259 0.000802183 0)
(-0.0176395 0.000740908 0)
(-0.0182027 0.000675418 0)
(-0.0187122 0.000606106 0)
(-0.0191652 0.000533368 0)
(-0.019559 0.000457607 0)
(-0.0198914 0.00037923 0)
(-0.0201606 0.000298652 0)
(-0.0203649 0.000216292 0)
(-0.020503 0.000132577 0)
(-0.0205742 4.79406e-05 0)
(-0.0205779 -3.71752e-05 0)
(-0.0205138 -0.000122322 0)
(-0.0203822 -0.000207042 0)
(-0.0201836 -0.000290873 0)
(-0.0199189 -0.000373343 0)
(-0.0195894 -0.000453977 0)
(-0.0191967 -0.000532292 0)
(-0.018743 -0.000607801 0)
(-0.0182307 -0.000680017 0)
(-0.0176626 -0.00074845 0)
(-0.0170418 -0.000812609 0)
(-0.0163721 -0.00087201 0)
(-0.0156574 -0.000926172 0)
(-0.0149019 -0.000974621 0)
(-0.0141105 -0.0010169 0)
(-0.0132882 -0.00105255 0)
(-0.0124404 -0.00108116 0)
(-0.0115728 -0.00110231 0)
(-0.0106914 -0.00111561 0)
(-0.00980256 -0.00112073 0)
(-0.00891272 -0.00111734 0)
(-0.00802866 -0.00110516 0)
(-0.00715732 -0.00108396 0)
(-0.00630574 -0.00105358 0)
(-0.00548105 -0.0010139 0)
(-0.00469039 -0.000964895 0)
(-0.00394085 -0.000906618 0)
(-0.00323936 -0.000839249 0)
(-0.00259259 -0.00076311 0)
(-0.00200683 -0.000678711 0)
(-0.00148776 -0.00058682 0)
(-0.00104027 -0.00048855 0)
(-0.000668156 -0.000385512 0)
(-0.000373654 -0.000280026 0)
(-0.000156941 -0.00017546 0)
(-1.53884e-05 -7.67368e-05 0)
(5.72541e-05 8.94082e-06 0)
(7.20224e-05 7.11365e-05 0)
(4.80211e-05 9.50109e-05 0)
(1.46899e-05 5.98419e-05 0)
(1.00653e-05 -8.12519e-05 0)
(2.04362e-05 -0.00010447 0)
(-4.25043e-06 -3.52038e-05 0)
(-9.0793e-05 9.37052e-05 0)
(-0.000257351 0.000259479 0)
(-0.000514879 0.000445559 0)
(-0.00086929 0.000640072 0)
(-0.00132254 0.000834654 0)
(-0.00187348 0.00102345 0)
(-0.00251857 0.00120237 0)
(-0.00325252 0.0013686 0)
(-0.00406872 0.00152023 0)
(-0.00495965 0.00165601 0)
(-0.00591712 0.00177516 0)
(-0.00693252 0.00187728 0)
(-0.007997 0.00196221 0)
(-0.00910158 0.00203001 0)
(-0.0102373 0.00208089 0)
(-0.0113953 0.00211519 0)
(-0.0125667 0.00213332 0)
(-0.0137431 0.00213578 0)
(-0.0149161 0.00212313 0)
(-0.0160778 0.00209595 0)
(-0.0172204 0.00205489 0)
(-0.0183364 0.0020006 0)
(-0.019419 0.00193376 0)
(-0.0204614 0.00185507 0)
(-0.0214572 0.00176523 0)
(-0.0224007 0.00166498 0)
(-0.0232862 0.00155505 0)
(-0.0241087 0.00143618 0)
(-0.0248635 0.00130912 0)
(-0.0255462 0.00117465 0)
(-0.026153 0.00103352 0)
(-0.0266805 0.000886536 0)
(-0.0271256 0.000734481 0)
(-0.0274859 0.000578164 0)
(-0.0277591 0.000418406 0)
(-0.0279438 0.000256037 0)
(-0.0280386 9.19049e-05 0)
(-0.0280428 -7.31309e-05 0)
(-0.0279563 -0.000238196 0)
(-0.0277793 -0.000402403 0)
(-0.0275125 -0.000564851 0)
(-0.0271572 -0.000724626 0)
(-0.0267151 -0.000880805 0)
(-0.0261885 -0.00103246 0)
(-0.0255801 -0.00117864 0)
(-0.0248933 -0.00131841 0)
(-0.0241319 -0.00145082 0)
(-0.0233 -0.00157494 0)
(-0.0224026 -0.00168983 0)
(-0.021445 -0.00179457 0)
(-0.0204329 -0.00188826 0)
(-0.0193727 -0.00197001 0)
(-0.018271 -0.00203899 0)
(-0.017135 -0.00209438 0)
(-0.0159724 -0.0021354 0)
(-0.0147911 -0.00216136 0)
(-0.0135993 -0.00217159 0)
(-0.0124058 -0.00216553 0)
(-0.0112194 -0.00214266 0)
(-0.0100491 -0.00210261 0)
(-0.00890428 -0.00204509 0)
(-0.0077941 -0.00196995 0)
(-0.00672787 -0.0018772 0)
(-0.00571472 -0.00176706 0)
(-0.00476354 -0.00163996 0)
(-0.00388279 -0.00149665 0)
(-0.0030804 -0.00133822 0)
(-0.00236342 -0.0011663 0)
(-0.00173785 -0.00098313 0)
(-0.00120821 -0.000791872 0)
(-0.000777115 -0.000596901 0)
(-0.00044468 -0.000404301 0)
(-0.000207852 -0.00022255 0)
(-5.96181e-05 -6.34457e-05 0)
(1.19743e-05 5.68188e-05 0)
(2.61399e-05 0.000116297 0)
(1.09142e-05 8.39109e-05 0)
(4.0255e-06 -8.71118e-05 0)
(-1.30006e-05 -7.96053e-05 0)
(-9.19966e-05 4.99643e-05 0)
(-0.000254069 0.000259822 0)
(-0.000515075 0.000520553 0)
(-0.000885471 0.000810084 0)
(-0.00137084 0.00111201 0)
(-0.00197279 0.00141432 0)
(-0.00268975 0.0017083 0)
(-0.00351761 0.00198766 0)
(-0.00445026 0.0022479 0)
(-0.00548008 0.00248588 0)
(-0.00659833 0.00269944 0)
(-0.00779543 0.00288719 0)
(-0.00906124 0.00304832 0)
(-0.0103853 0.00318243 0)
(-0.0117569 0.00328951 0)
(-0.0131653 0.00336977 0)
(-0.0145998 0.00342365 0)
(-0.0160498 0.00345176 0)
(-0.0175051 0.00345482 0)
(-0.0189554 0.00343366 0)
(-0.0203911 0.00338921 0)
(-0.0218028 0.00332243 0)
(-0.0231814 0.00323435 0)
(-0.0245183 0.00312606 0)
(-0.0258053 0.00299865 0)
(-0.0270347 0.00285327 0)
(-0.0281992 0.00269106 0)
(-0.0292921 0.00251321 0)
(-0.030307 0.00232092 0)
(-0.0312382 0.0021154 0)
(-0.0320804 0.0018979 0)
(-0.0328288 0.00166965 0)
(-0.0334792 0.00143194 0)
(-0.034028 0.00118605 0)
(-0.034472 0.000933287 0)
(-0.0348085 0.000674984 0)
(-0.0350357 0.000412491 0)
(-0.0351521 0.00014718 0)
(-0.0351567 -0.000119556 0)
(-0.0350493 -0.000386301 0)
(-0.0348304 -0.000651618 0)
(-0.0345007 -0.00091405 0)
(-0.0340619 -0.00117212 0)
(-0.033516 -0.00142434 0)
(-0.0328661 -0.00166921 0)
(-0.0321153 -0.00190521 0)
(-0.0312678 -0.00213083 0)
(-0.0303283 -0.00234455 0)
(-0.0293021 -0.00254487 0)
(-0.028195 -0.00273029 0)
(-0.0270136 -0.00289934 0)
(-0.025765 -0.00305058 0)
(-0.0244569 -0.00318262 0)
(-0.0230975 -0.00329411 0)
(-0.0216956 -0.00338377 0)
(-0.0202604 -0.0034504 0)
(-0.0188016 -0.00349288 0)
(-0.0173293 -0.00351021 0)
(-0.015854 -0.00350149 0)
(-0.0143865 -0.003466 0)
(-0.0129377 -0.00340316 0)
(-0.0115186 -0.00331259 0)
(-0.0101405 -0.00319414 0)
(-0.00881445 -0.00304792 0)
(-0.0075513 -0.00287439 0)
(-0.00636158 -0.00267435 0)
(-0.00525529 -0.00244914 0)
(-0.00424169 -0.00220064 0)
(-0.00332901 -0.00193156 0)
(-0.00252418 -0.00164556 0)
(-0.00183242 -0.00134763 0)
(-0.00125682 -0.00104449 0)
(-0.000797787 -0.000745182 0)
(-0.000452448 -0.000461872 0)
(-0.000213954 -0.000210879 0)
(-7.06412e-05 -1.3826e-05 0)
(-5.23004e-06 0.000100838 0)
(5.26633e-06 9.32124e-05 0)
(-2.66536e-06 -7.38286e-05 0)
(-5.09489e-05 -7.41385e-06 0)
(-0.000191977 0.000205544 0)
(-0.000438999 0.00051663 0)
(-0.000804141 0.000890879 0)
(-0.00129641 0.00130135 0)
(-0.00192031 0.00172745 0)
(-0.00267655 0.00215366 0)
(-0.0035628 0.00256838 0)
(-0.00457417 0.002963 0)
(-0.0057037 0.00333121 0)
(-0.00694282 0.00366844 0)
(-0.00828169 0.0039715 0)
(-0.00970953 0.00423822 0)
(-0.0112149 0.00446729 0)
(-0.0127859 0.00465798 0)
(-0.0144103 0.00481012 0)
(-0.0160759 0.00492391 0)
(-0.0177705 0.00499985 0)
(-0.0194818 0.00503873 0)
(-0.021198 0.00504151 0)
(-0.0229074 0.00500932 0)
(-0.0245986 0.00494344 0)
(-0.0262609 0.00484524 0)
(-0.0278836 0.00471616 0)
(-0.0294568 0.00455774 0)
(-0.0309709 0.00437155 0)
(-0.0324169 0.00415923 0)
(-0.0337864 0.00392245 0)
(-0.0350713 0.00366291 0)
(-0.0362645 0.00338236 0)
(-0.037359 0.00308256 0)
(-0.0383487 0.00276531 0)
(-0.0392281 0.00243244 0)
(-0.0399922 0.00208579 0)
(-0.0406367 0.00172726 0)
(-0.041158 0.00135874 0)
(-0.0415531 0.000982186 0)
(-0.0418195 0.000599565 0)
(-0.0419557 0.000212879 0)
(-0.0419606 -0.000175837 0)
(-0.041834 -0.000564519 0)
(-0.0415762 -0.000951073 0)
(-0.0411884 -0.00133338 0)
(-0.0406723 -0.00170929 0)
(-0.0400307 -0.00207664 0)
(-0.0392666 -0.00243324 0)
(-0.0383842 -0.00277691 0)
(-0.0373882 -0.00310544 0)
(-0.036284 -0.00341664 0)
(-0.0350779 -0.00370834 0)
(-0.0337767 -0.00397838 0)
(-0.0323882 -0.00422464 0)
(-0.0309204 -0.00444505 0)
(-0.0293825 -0.00463762 0)
(-0.0277839 -0.00480041 0)
(-0.0261348 -0.00493161 0)
(-0.0244461 -0.0050295 0)
(-0.0227288 -0.00509252 0)
(-0.0209948 -0.00511925 0)
(-0.0192561 -0.00510847 0)
(-0.017525 -0.00505919 0)
(-0.0158142 -0.00497064 0)
(-0.0141365 -0.00484236 0)
(-0.0125047 -0.00467424 0)
(-0.0109313 -0.00446656 0)
(-0.00942879 -0.00422008 0)
(-0.00800911 -0.00393611 0)
(-0.00668358 -0.00361667 0)
(-0.00546262 -0.00326463 0)
(-0.00435555 -0.00288392 0)
(-0.00337018 -0.00247982 0)
(-0.00251252 -0.00205931 0)
(-0.00178634 -0.00163158 0)
(-0.00119269 -0.00120868 0)
(-0.000729461 -0.00080637 0)
(-0.000390701 -0.000445174 0)
(-0.000165972 -0.000151572 0)
(-4.13505e-05 4.04715e-05 0)
(-1.09578e-06 8.43894e-05 0)
(-9.44945e-06 -4.01567e-05 0)
(-9.06459e-05 0.000116293 0)
(-0.000297793 0.000437799 0)
(-0.000635276 0.000871447 0)
(-0.00111061 0.00137794 0)
(-0.00173068 0.00192625 0)
(-0.00249829 0.00249211 0)
(-0.00341279 0.00305676 0)
(-0.00447072 0.00360586 0)
(-0.00566621 0.00412849 0)
(-0.00699133 0.00461647 0)
(-0.00843651 0.00506376 0)
(-0.00999087 0.00546602 0)
(-0.0116425 0.00582024 0)
(-0.0133788 0.00612449 0)
(-0.0151866 0.00637767 0)
(-0.0170524 0.00657936 0)
(-0.0189626 0.00672972 0)
(-0.0209036 0.0068293 0)
(-0.0228619 0.00687904 0)
(-0.024824 0.00688015 0)
(-0.0267771 0.00683409 0)
(-0.0287083 0.0067425 0)
(-0.0306054 0.00660718 0)
(-0.0324567 0.00643005 0)
(-0.0342508 0.00621314 0)
(-0.035977 0.00595857 0)
(-0.0376252 0.00566853 0)
(-0.0391857 0.00534527 0)
(-0.0406496 0.0049911 0)
(-0.0420086 0.00460837 0)
(-0.0432551 0.00419948 0)
(-0.0443821 0.00376688 0)
(-0.0453833 0.00331304 0)
(-0.0462531 0.0028405 0)
(-0.0469866 0.00235181 0)
(-0.0475798 0.00184957 0)
(-0.0480292 0.00133644 0)
(-0.0483322 0.0008151 0)
(-0.0484869 0.000288276 0)
(-0.0484921 -0.000241258 0)
(-0.0483476 -0.000770695 0)
(-0.0480539 -0.00129718 0)
(-0.0476122 -0.00181784 0)
(-0.0470246 -0.00232975 0)
(-0.0462939 -0.00282998 0)
(-0.045424 -0.00331555 0)
(-0.0444194 -0.0037835 0)
(-0.0432854 -0.00423086 0)
(-0.0420282 -0.00465466 0)
(-0.0406549 -0.00505195 0)
(-0.0391732 -0.00541984 0)
(-0.0375916 -0.00575547 0)
(-0.0359196 -0.00605606 0)
(-0.0341673 -0.00631893 0)
(-0.0323453 -0.0065415 0)
(-0.0304651 -0.00672133 0)
(-0.0285388 -0.00685617 0)
(-0.026579 -0.00694393 0)
(-0.0245988 -0.00698276 0)
(-0.0226117 -0.00697107 0)
(-0.0206316 -0.0069076 0)
(-0.0186725 -0.0067914 0)
(-0.0167487 -0.00662195 0)
(-0.0148744 -0.0063992 0)
(-0.0130636 -0.00612365 0)
(-0.01133 -0.00579642 0)
(-0.00968695 -0.00541944 0)
(-0.00814687 -0.00499551 0)
(-0.00672135 -0.00452858 0)
(-0.00542069 -0.00402393 0)
(-0.00425371 -0.00348852 0)
(-0.00322729 -0.00293142 0)
(-0.00234614 -0.00236428 0)
(-0.00161231 -0.00180205 0)
(-0.00102492 -0.00126384 0)
(-0.000579519 -0.000773933 0)
(-0.000267584 -0.000362944 0)
(-7.94216e-05 -6.92194e-05 0)
(-7.59716e-06 5.60686e-05 0)
(-1.60651e-05 1.41628e-05 0)
(-0.000130527 0.000293346 0)
(-0.000405467 0.000750001 0)
(-0.000836135 0.00132846 0)
(-0.00142501 0.00198624 0)
(-0.00217636 0.00268908 0)
(-0.00309088 0.00340957 0)
(-0.00416615 0.00412612 0)
(-0.00539728 0.00482185 0)
(-0.00677717 0.00548367 0)
(-0.00829678 0.00610158 0)
(-0.00994547 0.00666805 0)
(-0.0117113 0.00717757 0)
(-0.0135813 0.00762623 0)
(-0.0155416 0.00801144 0)
(-0.0175781 0.00833166 0)
(-0.0196761 0.00858624 0)
(-0.0218206 0.0087752 0)
(-0.0239969 0.00889915 0)
(-0.0261902 0.00895917 0)
(-0.0283859 0.00895673 0)
(-0.0305697 0.00889361 0)
(-0.0327278 0.00877185 0)
(-0.0348466 0.0085937 0)
(-0.0369132 0.00836159 0)
(-0.0389152 0.00807811 0)
(-0.0408407 0.00774595 0)
(-0.0426786 0.00736791 0)
(-0.0444183 0.0069469 0)
(-0.04605 0.00648589 0)
(-0.0475644 0.0059879 0)
(-0.0489532 0.00545604 0)
(-0.0502086 0.00489348 0)
(-0.0513237 0.00430343 0)
(-0.0522923 0.00368917 0)
(-0.0531092 0.00305401 0)
(-0.0537696 0.00240133 0)
(-0.0542699 0.00173458 0)
(-0.0546071 0.00105723 0)
(-0.0547793 0.000372825 0)
(-0.054785 -0.00031504 0)
(-0.0546241 -0.00100272 0)
(-0.0542971 -0.00168653 0)
(-0.0538053 -0.00236273 0)
(-0.0531511 -0.00302755 0)
(-0.0523377 -0.00367717 0)
(-0.0513691 -0.00430779 0)
(-0.0502505 -0.00491555 0)
(-0.0489878 -0.00549662 0)
(-0.0475877 -0.00604718 0)
(-0.0460581 -0.00656344 0)
(-0.0444074 -0.00704167 0)
(-0.0426451 -0.0074782 0)
(-0.0407816 -0.00786947 0)
(-0.0388279 -0.00821204 0)
(-0.0367958 -0.00850262 0)
(-0.034698 -0.00873811 0)
(-0.0325476 -0.00891564 0)
(-0.0303585 -0.00903257 0)
(-0.028145 -0.0090866 0)
(-0.025922 -0.00907574 0)
(-0.0237046 -0.00899843 0)
(-0.0215083 -0.00885357 0)
(-0.0193484 -0.00864056 0)
(-0.0172406 -0.00835946 0)
(-0.0152001 -0.00801101 0)
(-0.013242 -0.00759678 0)
(-0.0113805 -0.00711933 0)
(-0.00962944 -0.00658234 0)
(-0.0080014 -0.00599087 0)
(-0.00650777 -0.00535161 0)
(-0.0051584 -0.00467326 0)
(-0.00396127 -0.00396689 0)
(-0.00292221 -0.00324657 0)
(-0.00204463 -0.00252994 0)
(-0.00132924 -0.00183911 0)
(-0.000773569 -0.00120163 0)
(-0.000371432 -0.00065147 0)
(-0.000117834 -0.000230268 0)
(-1.39609e-05 7.89255e-06 0)
(-2.24027e-05 8.88334e-05 0)
(-0.000169745 0.000524037 0)
(-0.000512609 0.00114332 0)
(-0.00103727 0.00188956 0)
(-0.00174104 0.0027181 0)
(-0.00262532 0.00359219 0)
(-0.00368835 0.0044819 0)
(-0.00492567 0.00536318 0)
(-0.00633069 0.00621692 0)
(-0.00789488 0.00702804 0)
(-0.00960791 0.00778484 0)
(-0.011458 0.00847835 0)
(-0.013432 0.00910189 0)
(-0.015516 0.00965068 0)
(-0.0176949 0.0101214 0)
(-0.0199536 0.0105122 0)
(-0.0222762 0.0108219 0)
(-0.0246467 0.0110507 0)
(-0.0270492 0.011199 0)
(-0.0294677 0.0112681 0)
(-0.0318867 0.0112597 0)
(-0.0342906 0.011176 0)
(-0.0366645 0.0110194 0)
(-0.0389939 0.0107926 0)
(-0.0412647 0.0104987 0)
(-0.0434636 0.0101407 0)
(-0.0455776 0.00972208 0)
(-0.0475948 0.0092462 0)
(-0.0495037 0.00871668 0)
(-0.0512935 0.00813722 0)
(-0.0529544 0.0075116 0)
(-0.0544772 0.00684368 0)
(-0.0558535 0.00613742 0)
(-0.0570759 0.00539683 0)
(-0.0581376 0.004626 0)
(-0.0590328 0.00382909 0)
(-0.0597566 0.00301032 0)
(-0.060305 0.002174 0)
(-0.0606747 0.00132448 0)
(-0.0608635 0.000466194 0)
(-0.0608701 -0.000396366 0)
(-0.0606941 -0.00125865 0)
(-0.0603362 -0.00211603 0)
(-0.0597978 -0.00296386 0)
(-0.0590814 -0.00379741 0)
(-0.0581906 -0.00461195 0)
(-0.0571298 -0.0054027 0)
(-0.0559045 -0.00616487 0)
(-0.054521 -0.0068937 0)
(-0.0529868 -0.00758443 0)
(-0.0513102 -0.00823234 0)
(-0.0495006 -0.00883281 0)
(-0.0475681 -0.00938129 0)
(-0.0455238 -0.00987336 0)
(-0.0433799 -0.0103048 0)
(-0.041149 -0.0106715 0)
(-0.0388447 -0.0109696 0)
(-0.0364814 -0.0111957 0)
(-0.0340739 -0.0113466 0)
(-0.0316378 -0.0114193 0)
(-0.0291891 -0.0114115 0)
(-0.026744 -0.0113214 0)
(-0.0243191 -0.0111477 0)
(-0.0219312 -0.0108897 0)
(-0.019597 -0.0105476 0)
(-0.0173329 -0.0101224 0)
(-0.0151551 -0.00961612 0)
(-0.0130791 -0.00903203 0)
(-0.0111197 -0.00837469 0)
(-0.00929076 -0.0076503 0)
(-0.00760469 -0.00686697 0)
(-0.00607253 -0.00603506 0)
(-0.0047035 -0.00516762 0)
(-0.00350481 -0.00428091 0)
(-0.00248146 -0.00339507 0)
(-0.0016361 -0.00253482 0)
(-0.00096848 -0.00173045 0)
(-0.000475067 -0.00101856 0)
(-0.000155703 -0.00044314 0)
(-2.00664e-05 -5.99136e-05 0)
(-2.84286e-05 0.00018328 0)
(-0.000207873 0.000807745 0)
(-0.000617855 0.00161754 0)
(-0.00123607 0.00255504 0)
(-0.00205471 0.0035742 0)
(-0.00307219 0.00463647 0)
(-0.00428413 0.00570991 0)
(-0.00568379 0.00676846 0)
(-0.0072627 0.00779108 0)
(-0.00901069 0.00876092 0)
(-0.010916 0.00966473 0)
(-0.0129656 0.0104922 0)
(-0.0151452 0.0112356 0)
(-0.0174395 0.0118892 0)
(-0.0198327 0.0124491 0)
(-0.0223082 0.0129129 0)
(-0.0248494 0.0132794 0)
(-0.0274391 0.0135483 0)
(-0.0300603 0.0137202 0)
(-0.0326961 0.0137967 0)
(-0.0353299 0.0137796 0)
(-0.0379451 0.0136715 0)
(-0.0405257 0.0134752 0)
(-0.0430564 0.0131939 0)
(-0.0455222 0.0128313 0)
(-0.0479086 0.0123911 0)
(-0.0502022 0.0118772 0)
(-0.0523898 0.011294 0)
(-0.0544592 0.0106456 0)
(-0.0563992 0.00993663 0)
(-0.058199 0.00917158 0)
(-0.0598488 0.00835518 0)
(-0.0613397 0.0074922 0)
(-0.0626637 0.00658754 0)
(-0.0638137 0.00564614 0)
(-0.0647833 0.00467309 0)
(-0.0655673 0.00367351 0)
(-0.0661614 0.00265262 0)
(-0.0665621 0.00161574 0)
(-0.0667671 0.000568254 0)
(-0.0667749 -0.000484385 0)
(-0.0665853 -0.00153663 0)
(-0.0661986 -0.00258289 0)
(-0.0656167 -0.00361749 0)
(-0.0648423 -0.00463471 0)
(-0.0638789 -0.00562879 0)
(-0.0627314 -0.00659395 0)
(-0.0614056 -0.00752439 0)
(-0.0599084 -0.00841432 0)
(-0.0582476 -0.00925799 0)
(-0.0564322 -0.0100497 0)
(-0.0544722 -0.0107839 0)
(-0.0523783 -0.011455 0)
(-0.0501626 -0.0120577 0)
(-0.0478377 -0.0125869 0)
(-0.0454174 -0.0130378 0)
(-0.0429161 -0.0134057 0)
(-0.0403491 -0.0136865 0)
(-0.0377323 -0.0138762 0)
(-0.0350822 -0.0139715 0)
(-0.0324158 -0.0139697 0)
(-0.0297507 -0.0138684 0)
(-0.0271044 -0.0136664 0)
(-0.0244947 -0.0133627 0)
(-0.0219396 -0.0129578 0)
(-0.0194566 -0.012453 0)
(-0.0170629 -0.0118506 0)
(-0.0147753 -0.0111547 0)
(-0.0126097 -0.0103707 0)
(-0.010581 -0.00950595 0)
(-0.00870302 -0.00856987 0)
(-0.00698798 -0.00757446 0)
(-0.00544651 -0.0065346 0)
(-0.00408741 -0.00546858 0)
(-0.00291747 -0.00439871 0)
(-0.00194146 -0.00335201 0)
(-0.00116159 -0.00236096 0)
(-0.000577088 -0.00146422 0)
(-0.000192577 -0.000707359 0)
(-2.58733e-05 -0.000146828 0)
(-3.41465e-05 0.00029681 0)
(-0.00024473 0.00114334 0)
(-0.000720498 0.00217163 0)
(-0.00143104 0.00332416 0)
(-0.00236361 0.00455412 0)
(-0.00351362 0.00582171 0)
(-0.00487398 0.00709348 0)
(-0.00643555 0.00834174 0)
(-0.00818779 0.00954383 0)
(-0.0101188 0.0106814 0)
(-0.0122152 0.0117398 0)
(-0.0144625 0.0127075 0)
(-0.0168453 0.0135758 0)
(-0.0193471 0.0143382 0)
(-0.0219509 0.0149902 0)
(-0.0246391 0.0155289 0)
(-0.0273939 0.0159528 0)
(-0.0301973 0.0162616 0)
(-0.0330312 0.0164561 0)
(-0.0358778 0.0165377 0)
(-0.0387193 0.0165087 0)
(-0.0415385 0.0163719 0)
(-0.0443185 0.0161308 0)
(-0.0470428 0.0157891 0)
(-0.0496957 0.0153509 0)
(-0.0522621 0.0148207 0)
(-0.0547274 0.0142032 0)
(-0.0570781 0.0135033 0)
(-0.0593011 0.0127261 0)
(-0.0613843 0.011877 0)
(-0.0633167 0.0109612 0)
(-0.0650877 0.00998446 0)
(-0.0666879 0.00895238 0)
(-0.0681089 0.00787078 0)
(-0.069343 0.00674557 0)
(-0.0703837 0.00558274 0)
(-0.0712253 0.00438841 0)
(-0.0718632 0.0031688 0)
(-0.0722939 0.00193022 0)
(-0.0725149 0.000679053 0)
(-0.0725245 -0.000578194 0)
(-0.0723224 -0.00183494 0)
(-0.0719092 -0.00308454 0)
(-0.0712867 -0.00432025 0)
(-0.0704576 -0.00553529 0)
(-0.069426 -0.00672282 0)
(-0.0681967 -0.00787598 0)
(-0.066776 -0.00898789 0)
(-0.0651712 -0.0100517 0)
(-0.0633904 -0.0110606 0)
(-0.0614432 -0.0120078 0)
(-0.05934 -0.0128868 0)
(-0.0570924 -0.0136909 0)
(-0.0547129 -0.014414 0)
(-0.0522149 -0.01505 0)
(-0.0496131 -0.0155931 0)
(-0.0469225 -0.016038 0)
(-0.0441594 -0.0163796 0)
(-0.0413406 -0.0166135 0)
(-0.0384835 -0.0167358 0)
(-0.0356062 -0.0167431 0)
(-0.0327271 -0.016633 0)
(-0.0298648 -0.0164037 0)
(-0.0270383 -0.0160545 0)
(-0.0242665 -0.0155858 0)
(-0.0215681 -0.0149991 0)
(-0.0189615 -0.0142974 0)
(-0.0164644 -0.0134853 0)
(-0.0140941 -0.012569 0)
(-0.0118667 -0.011557 0)
(-0.00979729 -0.01046 0)
(-0.00789951 -0.00929158 0)
(-0.00618555 -0.00806816 0)
(-0.00466591 -0.00680993 0)
(-0.00334936 -0.00554111 0)
(-0.00224295 -0.00429061 0)
(-0.00135142 -0.00309273 0)
(-0.000676777 -0.00198764 0)
(-0.000228269 -0.00102194 0)
(-3.13819e-05 -0.000252203 0)
(-3.95776e-05 0.000428708 0)
(-0.000280285 0.00152946 0)
(-0.000820251 0.00280406 0)
(-0.00162146 0.00419551 0)
(-0.00266646 0.00565669 0)
(-0.00394772 0.00714697 0)
(-0.00545542 0.00863181 0)
(-0.00717791 0.0100822 0)
(-0.00910251 0.0114743 0)
(-0.0112154 0.0127883 0)
(-0.0135016 0.0140085 0)
(-0.0159451 0.0151224 0)
(-0.0185291 0.0161202 0)
(-0.0212359 0.0169948 0)
(-0.0240473 0.0177412 0)
(-0.0269447 0.018356 0)
(-0.0299092 0.0188376 0)
(-0.0329218 0.0191856 0)
(-0.0359635 0.0194008 0)
(-0.0390155 0.0194849 0)
(-0.0420592 0.0194404 0)
(-0.0450764 0.0192707 0)
(-0.0480495 0.0189795 0)
(-0.0509611 0.0185712 0)
(-0.0537948 0.0180506 0)
(-0.0565347 0.0174228 0)
(-0.0591655 0.0166932 0)
(-0.061673 0.0158676 0)
(-0.0640436 0.0149519 0)
(-0.0662645 0.0139522 0)
(-0.0683241 0.0128749 0)
(-0.0702114 0.0117264 0)
(-0.0719166 0.0105134 0)
(-0.0734306 0.00924263 0)
(-0.0747456 0.00792095 0)
(-0.0758546 0.00655539 0)
(-0.0767518 0.00515309 0)
(-0.0774322 0.0037213 0)
(-0.0778922 0.00226738 0)
(-0.078129 0.000798811 0)
(-0.078141 -0.000676842 0)
(-0.0779279 -0.0021519 0)
(-0.0774901 -0.00361859 0)
(-0.0768296 -0.00506908 0)
(-0.0759492 -0.00649544 0)
(-0.0748531 -0.00788971 0)
(-0.0735465 -0.00924389 0)
(-0.0720358 -0.01055 0)
(-0.0703285 -0.0118 0)
(-0.0684335 -0.012986 0)
(-0.0663604 -0.0141001 0)
(-0.0641204 -0.0151347 0)
(-0.0617255 -0.0160821 0)
(-0.0591887 -0.0169352 0)
(-0.0565244 -0.0176868 0)
(-0.0537475 -0.0183303 0)
(-0.0508741 -0.0188594 0)
(-0.0479211 -0.0192684 0)
(-0.0449063 -0.0195521 0)
(-0.0418478 -0.019706 0)
(-0.0387647 -0.0197262 0)
(-0.0356764 -0.0196099 0)
(-0.0326024 -0.0193551 0)
(-0.0295629 -0.0189611 0)
(-0.0265776 -0.0184281 0)
(-0.0236664 -0.0177581 0)
(-0.0208488 -0.0169544 0)
(-0.0181439 -0.0160221 0)
(-0.0155701 -0.0149684 0)
(-0.0131447 -0.0138028 0)
(-0.0108843 -0.0125371 0)
(-0.00880408 -0.0111862 0)
(-0.00691788 -0.00976817 0)
(-0.00523803 -0.00830474 0)
(-0.00377539 -0.00682179 0)
(-0.00253937 -0.00534986 0)
(-0.00153728 -0.00392467 0)
(-0.000773858 -0.00258753 0)
(-0.000262746 -0.00138564 0)
(-3.66128e-05 -0.000375362 0)
(-4.4751e-05 0.000578279 0)
(-0.000314588 0.00196466 0)
(-0.000917091 0.00351311 0)
(-0.0018071 0.00516736 0)
(-0.00296275 0.0068803 0)
(-0.00437363 0.00861083 0)
(-0.00602719 0.0103236 0)
(-0.00790929 0.0119888 0)
(-0.010005 0.0135813 0)
(-0.0122986 0.0150805 0)
(-0.0147732 0.0164695 0)
(-0.0174114 0.0177351 0)
(-0.0201949 0.0188666 0)
(-0.0231046 0.0198565 0)
(-0.0261212 0.0206991 0)
(-0.0292249 0.0213908 0)
(-0.0323959 0.0219299 0)
(-0.0356141 0.022316 0)
(-0.0388596 0.0225498 0)
(-0.0421126 0.0226334 0)
(-0.0453539 0.0225696 0)
(-0.0485642 0.0223622 0)
(-0.0517253 0.0220155 0)
(-0.054819 0.0215345 0)
(-0.0578282 0.0209245 0)
(-0.0607362 0.0201915 0)
(-0.0635274 0.0193416 0)
(-0.0661866 0.0183814 0)
(-0.0686998 0.0173177 0)
(-0.0710537 0.0161575 0)
(-0.0732362 0.0149081 0)
(-0.0752358 0.013577 0)
(-0.0770422 0.0121716 0)
(-0.0786462 0.0106998 0)
(-0.0800394 0.0091696 0)
(-0.0812146 0.00758893 0)
(-0.0821657 0.00596602 0)
(-0.0828876 0.00430922 0)
(-0.0833764 0.00262699 0)
(-0.0836292 0.000927906 0)
(-0.0836445 -0.000779319 0)
(-0.0834215 -0.00248587 0)
(-0.0829611 -0.00418282 0)
(-0.082265 -0.00586115 0)
(-0.0813363 -0.00751179 0)
(-0.0801792 -0.00912557 0)
(-0.0787991 -0.0106933 0)
(-0.0772027 -0.0122059 0)
(-0.0753978 -0.013654 0)
(-0.0733934 -0.0150287 0)
(-0.0711998 -0.0163209 0)
(-0.0688283 -0.0175217 0)
(-0.0662916 -0.0186226 0)
(-0.0636032 -0.0196152 0)
(-0.0607779 -0.0204913 0)
(-0.0578314 -0.0212434 0)
(-0.0547805 -0.0218643 0)
(-0.0516427 -0.0223475 0)
(-0.0484366 -0.0226868 0)
(-0.0451813 -0.0228773 0)
(-0.0418965 -0.0229146 0)
(-0.0386026 -0.0227953 0)
(-0.0353202 -0.0225172 0)
(-0.0320703 -0.0220794 0)
(-0.0288739 -0.0214823 0)
(-0.0257518 -0.0207279 0)
(-0.0227248 -0.0198199 0)
(-0.0198131 -0.0187641 0)
(-0.0170365 -0.0175682 0)
(-0.0144137 -0.0162428 0)
(-0.0119627 -0.0148007 0)
(-0.00970037 -0.013258 0)
(-0.00764232 -0.0116342 0)
(-0.00580282 -0.00995239 0)
(-0.00419489 -0.00823991 0)
(-0.00283034 -0.00652863 0)
(-0.00171903 -0.00485542 0)
(-0.000868345 -0.00326241 0)
(-0.000296071 -0.00179718 0)
(-4.15964e-05 -0.000515654 0)
(-4.96987e-05 0.000744883 0)
(-0.00034774 0.00244753 0)
(-0.00101116 0.00429697 0)
(-0.0019881 0.00623781 0)
(-0.00325248 0.00822312 0)
(-0.00479118 0.0102116 0)
(-0.00658897 0.0121675 0)
(-0.00862918 0.01406 0)
(-0.0108947 0.0158636 0)
(-0.0133675 0.0175566 0)
(-0.0160293 0.0191214 0)
(-0.0188607 0.020544 0)
(-0.021842 0.0218134 0)
(-0.0249529 0.0229212 0)
(-0.0281726 0.0238616 0)
(-0.0314804 0.0246307 0)
(-0.0348552 0.0252268 0)
(-0.0382761 0.0256493 0)
(-0.0417221 0.0258994 0)
(-0.0451728 0.0259792 0)
(-0.0486077 0.0258921 0)
(-0.0520073 0.0256421 0)
(-0.0553522 0.0252343 0)
(-0.0586237 0.0246742 0)
(-0.061804 0.0239679 0)
(-0.0648759 0.023122 0)
(-0.0678229 0.0221436 0)
(-0.0706297 0.0210401 0)
(-0.0732814 0.0198191 0)
(-0.0757645 0.0184887 0)
(-0.0780662 0.017057 0)
(-0.0801748 0.0155325 0)
(-0.0820796 0.0139239 0)
(-0.0837709 0.0122398 0)
(-0.0852402 0.0104894 0)
(-0.0864799 0.00868172 0)
(-0.0874838 0.00682611 0)
(-0.0882465 0.004932 0)
(-0.0887639 0.00300901 0)
(-0.0890331 0.00106686 0)
(-0.0890523 -0.000884555 0)
(-0.088821 -0.00283524 0)
(-0.0883398 -0.00477508 0)
(-0.0876105 -0.00669386 0)