/*--------------------------------*- C++ -*----------------------------------*\
| =========                 |                                                 |
| \\      /  F ield         | OpenFOAM: The Open Source CFD Toolbox           |
|  \\    /   O peration     | Version:  2506                                  |
|   \\  /    A nd           | Website:  www.openfoam.com                      |
|    \\/     M anipulation  |                                                 |
\*---------------------------------------------------------------------------*/
FoamFile
{
    version     2.0;
    format      ascii;
    arch        "LSB;label=32;scalar=64";
    class       volVectorField;
    location    "7.875";
    object      diffU;
}
// * * * * * * * * * * * * * * * * * * * * * * * * * * * * * * * * * * * * * //

dimensions      [0 1 -1 0 0 0 0];

internalField   nonuniform List<vector> 
400
(
(0 0 0)
(-4.88498e-15 -4.2541e-14 0)
(-4.10783e-15 -3.4608e-14 0)
(-4.44089e-15 -3.64412e-14 0)
(-4.55191e-15 -3.61136e-14 0)
(-4.66294e-15 -3.61268e-14 0)
(-4.55191e-15 -3.61399e-14 0)
(-4.66294e-15 -3.618e-14 0)
(-4.77396e-15 -3.62384e-14 0)
(-4.66294e-15 -3.62136e-14 0)
(-4.32987e-15 -3.61891e-14 0)
(-4.55191e-15 -3.61563e-14 0)
(-4.55191e-15 -3.619e-14 0)
(-4.44089e-15 -3.61633e-14 0)
(-4.66294e-15 -3.61956e-14 0)
(-4.88498e-15 -3.61996e-14 0)
(-4.66294e-15 -3.61395e-14 0)
(-4.77396e-15 -3.60597e-14 0)
(-4.88498e-15 -3.60985e-14 0)
(-4.996e-15 -3.62181e-14 0)
(-1.63203e-14 -3.3639e-14 0)
(-3.66374e-15 -3.63911e-14 0)
(-6.77236e-15 -3.60972e-14 0)
(-4.996e-15 -3.62462e-14 0)
(-5.66214e-15 -3.62309e-14 0)
(-5.44009e-15 -3.61431e-14 0)
(-5.44009e-15 -3.61676e-14 0)
(-5.21805e-15 -3.62271e-14 0)
(-5.21805e-15 -3.62842e-14 0)
(-5.21805e-15 -3.62465e-14 0)
(-5.21805e-15 -3.62378e-14 0)
(-5.44009e-15 -3.62239e-14 0)
(-5.21805e-15 -3.62139e-14 0)
(-4.996e-15 -3.6123e-14 0)
(-4.88498e-15 -3.60621e-14 0)
(-5.21805e-15 -3.60482e-14 0)
(-5.44009e-15 -3.61141e-14 0)
(-5.44009e-15 -3.6164e-14 0)
(-5.21805e-15 -3.61923e-14 0)
(-4.996e-15 -3.6239e-14 0)
(1.22125e-15 -5.84577e-14 0)
(-5.21805e-15 -3.24267e-14 0)
(-4.10783e-15 -3.71121e-14 0)
(-4.88498e-15 -3.59302e-14 0)
(-5.21805e-15 -3.60899e-14 0)
(-5.44009e-15 -3.61283e-14 0)
(-5.44009e-15 -3.62562e-14 0)
(-4.996e-15 -3.63248e-14 0)
(-5.21805e-15 -3.62579e-14 0)
(-4.996e-15 -3.62511e-14 0)
(-4.996e-15 -3.62539e-14 0)
(-4.996e-15 -3.63358e-14 0)
(-5.21805e-15 -3.62791e-14 0)
(-5.21805e-15 -3.62424e-14 0)
(-5.21805e-15 -3.61555e-14 0)
(-5.21805e-15 -3.61419e-14 0)
(-4.88498e-15 -3.61769e-14 0)
(-4.88498e-15 -3.62549e-14 0)
(-4.77396e-15 -3.62352e-14 0)
(-4.996e-15 -3.62143e-14 0)
(-6.10623e-15 -1.8468e-14 0)
(-4.10783e-15 -3.94048e-14 0)
(-4.996e-15 -3.51384e-14 0)
(-4.996e-15 -3.61062e-14 0)
(-4.32987e-15 -3.58522e-14 0)
(-4.55191e-15 -3.60606e-14 0)
(-4.66294e-15 -3.62718e-14 0)
(-4.88498e-15 -3.63551e-14 0)
(-4.88498e-15 -3.63027e-14 0)
(-4.996e-15 -3.6289e-14 0)
(-4.77396e-15 -3.62636e-14 0)
(-4.77396e-15 -3.62684e-14 0)
(-4.77396e-15 -3.61838e-14 0)
(-4.77396e-15 -3.61744e-14 0)
(-4.77396e-15 -3.62219e-14 0)
(-4.88498e-15 -3.62446e-14 0)
(-4.996e-15 -3.62268e-14 0)
(-5.21805e-15 -3.6164e-14 0)
(-4.996e-15 -3.61405e-14 0)
(-4.996e-15 -3.61973e-14 0)
(-3.77476e-15 -4.61123e-14 0)
(-5.88418e-15 -3.37858e-14 0)
(-4.77396e-15 -3.65782e-14 0)
(-4.55191e-15 -3.6194e-14 0)
(-4.44089e-15 -3.63397e-14 0)
(-4.10783e-15 -3.6172e-14 0)
(-4.10783e-15 -3.60781e-14 0)
(-4.44089e-15 -3.6071e-14 0)
(-4.32987e-15 -3.61422e-14 0)
(-4.77396e-15 -3.6178e-14 0)
(-4.88498e-15 -3.61899e-14 0)
(-4.996e-15 -3.6134e-14 0)
(-5.21805e-15 -3.62052e-14 0)
(-4.88498e-15 -3.61703e-14 0)
(-4.88498e-15 -3.61811e-14 0)
(-4.88498e-15 -3.61461e-14 0)
(-4.996e-15 -3.61514e-14 0)
(-4.996e-15 -3.61308e-14 0)
(-4.996e-15 -3.61821e-14 0)
(-4.88498e-15 -3.62191e-14 0)
(-5.21805e-15 -4.24439e-14 0)
(-4.88498e-15 -3.50953e-14 0)
(-4.66294e-15 -3.66382e-14 0)
(-4.996e-15 -3.6385e-14 0)
(-4.88498e-15 -3.65073e-14 0)
(-5.21805e-15 -3.62977e-14 0)
(-4.996e-15 -3.61445e-14 0)
(-4.77396e-15 -3.60121e-14 0)
(-4.77396e-15 -3.59508e-14 0)
(-4.77396e-15 -3.59717e-14 0)
(-4.88498e-15 -3.5991e-14 0)
(-4.77396e-15 -3.6014e-14 0)
(-4.996e-15 -3.62811e-14 0)
(-4.996e-15 -3.6326e-14 0)
(-4.88498e-15 -3.61964e-14 0)
(-5.21805e-15 -3.61793e-14 0)
(-5.21805e-15 -3.61718e-14 0)
(-5.21805e-15 -3.61565e-14 0)
(-5.21805e-15 -3.62385e-14 0)
(-4.996e-15 -3.62542e-14 0)
(-4.996e-15 -1.84414e-14 0)
(-4.66294e-15 -3.98508e-14 0)
(-4.88498e-15 -3.53414e-14 0)
(-4.996e-15 -3.64029e-14 0)
(-5.21805e-15 -3.61284e-14 0)
(-5.21805e-15 -3.60977e-14 0)
(-5.44009e-15 -3.62552e-14 0)
(-5.66214e-15 -3.6286e-14 0)
(-5.66214e-15 -3.6206e-14 0)
(-4.996e-15 -3.60933e-14 0)
(-4.996e-15 -3.60156e-14 0)
(-4.996e-15 -3.59596e-14 0)
(-4.66294e-15 -3.60778e-14 0)
(-4.88498e-15 -3.61908e-14 0)
(-5.21805e-15 -3.61225e-14 0)
(-4.77396e-15 -3.61349e-14 0)
(-4.88498e-15 -3.62133e-14 0)
(-4.88498e-15 -3.6243e-14 0)
(-4.88498e-15 -3.62368e-14 0)
(-4.88498e-15 -3.62031e-14 0)
(-1.22125e-15 -3.75575e-14 0)
(-6.55032e-15 -3.60337e-14 0)
(-5.21805e-15 -3.60772e-14 0)
(-5.66214e-15 -3.60906e-14 0)
(-5.88418e-15 -3.60348e-14 0)
(-5.66214e-15 -3.60705e-14 0)
(-5.21805e-15 -3.60788e-14 0)
(-5.66214e-15 -3.61186e-14 0)
(-5.66214e-15 -3.61717e-14 0)
(-5.88418e-15 -3.62198e-14 0)
(-5.88418e-15 -3.62102e-14 0)
(-5.88418e-15 -3.623e-14 0)
(-5.66214e-15 -3.62473e-14 0)
(-5.44009e-15 -3.63017e-14 0)
(-5.21805e-15 -3.63215e-14 0)
(-5.21805e-15 -3.63015e-14 0)
(-4.996e-15 -3.62996e-14 0)
(-5.21805e-15 -3.63119e-14 0)
(-4.996e-15 -3.62349e-14 0)
(-4.996e-15 -3.61814e-14 0)
(-3.66374e-15 -5.63937e-14 0)
(-5.21805e-15 -3.16045e-14 0)
(-4.55191e-15 -3.70417e-14 0)
(-4.77396e-15 -3.58147e-14 0)
(-4.66294e-15 -3.61571e-14 0)
(-4.77396e-15 -3.62805e-14 0)
(-4.66294e-15 -3.61246e-14 0)
(-4.66294e-15 -3.60684e-14 0)
(-4.55191e-15 -3.61143e-14 0)
(-4.44089e-15 -3.61483e-14 0)
(-4.66294e-15 -3.61899e-14 0)
(-4.66294e-15 -3.63914e-14 0)
(-4.88498e-15 -3.65074e-14 0)
(-4.77396e-15 -3.63993e-14 0)
(-4.77396e-15 -3.62874e-14 0)
(-4.55191e-15 -3.6324e-14 0)
(-4.66294e-15 -3.6269e-14 0)
(-4.77396e-15 -3.6228e-14 0)
(-4.77396e-15 -3.61926e-14 0)
(-4.996e-15 -3.62462e-14 0)
(-3.33067e-15 -1.99409e-14 0)
(-4.77396e-15 -3.89762e-14 0)
(-4.66294e-15 -3.5471e-14 0)
(-4.88498e-15 -3.63017e-14 0)
(-4.44089e-15 -3.61335e-14 0)
(-4.55191e-15 -3.61137e-14 0)
(-4.88498e-15 -3.60291e-14 0)
(-4.88498e-15 -3.60604e-14 0)
(-5.21805e-15 -3.60852e-14 0)
(-5.21805e-15 -3.60437e-14 0)
(-5.44009e-15 -3.60952e-14 0)
(-4.88498e-15 -3.61949e-14 0)
(-4.88498e-15 -3.62265e-14 0)
(-5.44009e-15 -3.62557e-14 0)
(-5.66214e-15 -3.63244e-14 0)
(-5.44009e-15 -3.63844e-14 0)
(-5.44009e-15 -3.63067e-14 0)
(-5.21805e-15 -3.62322e-14 0)
(-5.21805e-15 -3.62295e-14 0)
(-4.996e-15 -3.62778e-14 0)
(-1.07692e-14 -3.69597e-14 0)
(-3.66374e-15 -3.56148e-14 0)
(-5.88418e-15 -3.59729e-14 0)
(-5.21805e-15 -3.60878e-14 0)
(-5.44009e-15 -3.61091e-14 0)
(-5.44009e-15 -3.59927e-14 0)
(-5.44009e-15 -3.59784e-14 0)
(-4.996e-15 -3.60296e-14 0)
(-4.996e-15 -3.61251e-14 0)
(-4.88498e-15 -3.6255e-14 0)
(-4.88498e-15 -3.63425e-14 0)
(-4.77396e-15 -3.62673e-14 0)
(-4.77396e-15 -3.61451e-14 0)
(-4.66294e-15 -3.62988e-14 0)
(-4.44089e-15 -3.64861e-14 0)
(-4.21885e-15 -3.63988e-14 0)
(-4.55191e-15 -3.62728e-14 0)
(-4.66294e-15 -3.62457e-14 0)
(-4.88498e-15 -3.62724e-14 0)
(-4.996e-15 -3.62108e-14 0)
(0 -4.21333e-14 0)
(-6.55032e-15 -3.4459e-14 0)
(-5.21805e-15 -3.63131e-14 0)
(-5.44009e-15 -3.59548e-14 0)
(-5.21805e-15 -3.61521e-14 0)
(-5.21805e-15 -3.62141e-14 0)
(-4.88498e-15 -3.62344e-14 0)
(-4.77396e-15 -3.61939e-14 0)
(-4.66294e-15 -3.61896e-14 0)
(-4.44089e-15 -3.62173e-14 0)
(-4.66294e-15 -3.62568e-14 0)
(-4.77396e-15 -3.62673e-14 0)
(-4.88498e-15 -3.62553e-14 0)
(-4.77396e-15 -3.62832e-14 0)
(-4.88498e-15 -3.6286e-14 0)
(-5.21805e-15 -3.62433e-14 0)
(-5.44009e-15 -3.61691e-14 0)
(-4.77396e-15 -3.61282e-14 0)
(-4.996e-15 -3.61001e-14 0)
(-4.996e-15 -3.61613e-14 0)
(-1.60982e-14 -3.2375e-14 0)
(-3.77476e-15 -3.71094e-14 0)
(-6.32827e-15 -3.59635e-14 0)
(-5.21805e-15 -3.6127e-14 0)
(-5.66214e-15 -3.61801e-14 0)
(-5.66214e-15 -3.63465e-14 0)
(-5.66214e-15 -3.63788e-14 0)
(-5.88418e-15 -3.63323e-14 0)
(-5.88418e-15 -3.62583e-14 0)
(-5.66214e-15 -3.62682e-14 0)
(-5.66214e-15 -3.62836e-14 0)
(-5.44009e-15 -3.62688e-14 0)
(-4.996e-15 -3.62511e-14 0)
(-5.44009e-15 -3.62468e-14 0)
(-5.21805e-15 -3.62291e-14 0)
(-5.21805e-15 -3.62744e-14 0)
(-5.21805e-15 -3.63359e-14 0)
(-5.44009e-15 -3.63157e-14 0)
(-5.21805e-15 -3.61799e-14 0)
(-4.996e-15 -3.62026e-14 0)
(9.99201e-16 -3.96704e-14 0)
(-5.44009e-15 -3.53741e-14 0)
(-4.21885e-15 -3.62969e-14 0)
(-4.66294e-15 -3.59895e-14 0)
(-4.55191e-15 -3.605e-14 0)
(-4.66294e-15 -3.61048e-14 0)
(-4.66294e-15 -3.62394e-14 0)
(-4.55191e-15 -3.62473e-14 0)
(-4.77396e-15 -3.62957e-14 0)
(-4.77396e-15 -3.64487e-14 0)
(-4.66294e-15 -3.64945e-14 0)
(-4.77396e-15 -3.64239e-14 0)
(-4.66294e-15 -3.63291e-14 0)
(-4.66294e-15 -3.6335e-14 0)
(-4.77396e-15 -3.62857e-14 0)
(-4.77396e-15 -3.62376e-14 0)
(-4.77396e-15 -3.62579e-14 0)
(-4.88498e-15 -3.6246e-14 0)
(-4.996e-15 -3.62349e-14 0)
(-4.996e-15 -3.62198e-14 0)
(-5.66214e-15 -2.0177e-14 0)
(-5.21805e-15 -3.8995e-14 0)
(-5.44009e-15 -3.55647e-14 0)
(-5.21805e-15 -3.62877e-14 0)
(-5.21805e-15 -3.6137e-14 0)
(-4.996e-15 -3.62337e-14 0)
(-4.88498e-15 -3.63555e-14 0)
(-4.88498e-15 -3.632e-14 0)
(-4.77396e-15 -3.62876e-14 0)
(-4.55191e-15 -3.62873e-14 0)
(-4.88498e-15 -3.62992e-14 0)
(-4.88498e-15 -3.62861e-14 0)
(-4.996e-15 -3.628e-14 0)
(-4.996e-15 -3.62548e-14 0)
(-5.21805e-15 -3.62629e-14 0)
(-5.21805e-15 -3.62444e-14 0)
(-5.21805e-15 -3.61856e-14 0)
(-5.21805e-15 -3.61443e-14 0)
(-4.996e-15 -3.61556e-14 0)
(-4.88498e-15 -3.62059e-14 0)
(-1.32117e-14 -5.98132e-14 0)
(-3.21965e-15 -3.16844e-14 0)
(-5.21805e-15 -3.7059e-14 0)
(-4.55191e-15 -3.59113e-14 0)
(-4.77396e-15 -3.61981e-14 0)
(-4.88498e-15 -3.62844e-14 0)
(-4.88498e-15 -3.63902e-14 0)
(-4.88498e-15 -3.65348e-14 0)
(-4.996e-15 -3.65838e-14 0)
(-4.77396e-15 -3.64142e-14 0)
(-4.66294e-15 -3.62815e-14 0)
(-4.77396e-15 -3.61738e-14 0)
(-4.55191e-15 -3.6219e-14 0)
(-4.77396e-15 -3.61962e-14 0)
(-4.77396e-15 -3.61965e-14 0)
(-4.77396e-15 -3.61199e-14 0)
(-4.88498e-15 -3.61027e-14 0)
(-4.88498e-15 -3.61569e-14 0)
(-5.21805e-15 -3.62549e-14 0)
(-4.996e-15 -3.62542e-14 0)
(5.21805e-15 -2.16102e-14 0)
(-6.32827e-15 -3.94301e-14 0)
(-3.88578e-15 -3.54516e-14 0)
(-4.996e-15 -3.63187e-14 0)
(-4.55191e-15 -3.61556e-14 0)
(-4.66294e-15 -3.62327e-14 0)
(-4.55191e-15 -3.63153e-14 0)
(-4.55191e-15 -3.64262e-14 0)
(-4.996e-15 -3.63654e-14 0)
(-5.21805e-15 -3.62048e-14 0)
(-5.66214e-15 -3.61595e-14 0)
(-5.44009e-15 -3.61106e-14 0)
(-5.44009e-15 -3.62331e-14 0)
(-5.44009e-15 -3.62369e-14 0)
(-5.66214e-15 -3.61594e-14 0)
(-5.66214e-15 -3.61339e-14 0)
(-5.44009e-15 -3.61333e-14 0)
(-4.996e-15 -3.61811e-14 0)
(-4.88498e-15 -3.62966e-14 0)
(-4.88498e-15 -3.6263e-14 0)
(-1.0103e-14 -2.01886e-14 0)
(-4.21885e-15 -3.90725e-14 0)
(-5.66214e-15 -3.54749e-14 0)
(-4.66294e-15 -3.62813e-14 0)
(-4.88498e-15 -3.6173e-14 0)
(-4.996e-15 -3.6195e-14 0)
(-4.88498e-15 -3.61815e-14 0)
(-5.21805e-15 -3.62348e-14 0)
(-5.21805e-15 -3.62062e-14 0)
(-4.996e-15 -3.61363e-14 0)
(-5.21805e-15 -3.61169e-14 0)
(-4.996e-15 -3.6204e-14 0)
(-4.996e-15 -3.62215e-14 0)
(-4.996e-15 -3.61959e-14 0)
(-4.996e-15 -3.61773e-14 0)
(-4.88498e-15 -3.62803e-14 0)
(-4.88498e-15 -3.62975e-14 0)
(-4.77396e-15 -3.62639e-14 0)
(-4.996e-15 -3.62126e-14 0)
(-4.996e-15 -3.61836e-14 0)
(-6.66134e-16 -6.01972e-14 0)
(-6.32827e-15 -3.15804e-14 0)
(-4.996e-15 -3.72297e-14 0)
(-5.44009e-15 -3.59242e-14 0)
(-5.44009e-15 -3.60956e-14 0)
(-5.44009e-15 -3.6079e-14 0)
(-5.21805e-15 -3.61311e-14 0)
(-5.44009e-15 -3.62363e-14 0)
(-5.21805e-15 -3.63735e-14 0)
(-5.44009e-15 -3.63861e-14 0)
(-4.996e-15 -3.62891e-14 0)
(-4.996e-15 -3.63802e-14 0)
(-4.77396e-15 -3.62102e-14 0)
(-4.996e-15 -3.61703e-14 0)
(-5.21805e-15 -3.62749e-14 0)
(-4.66294e-15 -3.63135e-14 0)
(-4.77396e-15 -3.62432e-14 0)
(-4.996e-15 -3.62102e-14 0)
(-4.88498e-15 -3.61923e-14 0)
(-4.88498e-15 -3.61506e-14 0)
(-2.33147e-15 -3.5518e-14 0)
(-4.88498e-15 -3.67508e-14 0)
(-4.32987e-15 -3.62293e-14 0)
(-4.55191e-15 -3.62782e-14 0)
(-4.32987e-15 -3.61708e-14 0)
(-4.44089e-15 -3.62053e-14 0)
(-4.32987e-15 -3.62723e-14 0)
(-4.21885e-15 -3.62865e-14 0)
(-4.44089e-15 -3.6295e-14 0)
(-4.55191e-15 -3.62963e-14 0)
(-4.66294e-15 -3.62637e-14 0)
(-4.88498e-15 -3.6289e-14 0)
(-4.996e-15 -3.62008e-14 0)
(-4.996e-15 -3.6183e-14 0)
(-4.996e-15 -3.62844e-14 0)
(-4.996e-15 -3.62729e-14 0)
(-5.21805e-15 -3.61749e-14 0)
(-4.996e-15 -3.61911e-14 0)
(-4.996e-15 -3.62042e-14 0)
(-4.996e-15 -3.61648e-14 0)
)
;

boundaryField
{
    movingWall
    {
        type            calculated;
        value           uniform (-4.996e-15 -3.61954e-14 0);
    }
    fixedWalls
    {
        type            calculated;
        value           uniform (-4.996e-15 -3.61954e-14 0);
    }
    frontAndBack
    {
        type            empty;
    }
}


// ************************************************************************* //
