/*--------------------------------*- C++ -*----------------------------------*\
| =========                 |                                                 |
| \\      /  F ield         | OpenFOAM: The Open Source CFD Toolbox           |
|  \\    /   O peration     | Version:  2506                                  |
|   \\  /    A nd           | Website:  www.openfoam.com                      |
|    \\/     M anipulation  |                                                 |
\*---------------------------------------------------------------------------*/
FoamFile
{
    version     2.0;
    format      ascii;
    arch        "LSB;label=32;scalar=64";
    class       volScalarField;
    location    "7.875";
    object      divU;
}
// * * * * * * * * * * * * * * * * * * * * * * * * * * * * * * * * * * * * * //

dimensions      [0 0 -1 0 0 0 0];

internalField   nonuniform List<scalar> 
400
(
4.39102e-12
-1.08782e-12
2.22779e-13
-5.67658e-14
-4.95778e-14
3.91964e-14
-1.87783e-14
-1.63377e-15
-1.31818e-14
2.01741e-14
2.34974e-14
-2.60391e-14
2.58038e-14
-1.6643e-14
-1.3792e-14
1.43032e-14
1.37225e-14
1.6708e-14
-4.42127e-14
0
-6.80337e-12
1.92939e-12
-3.79998e-13
1.56968e-13
7.00971e-15
1.19422e-14
-3.29535e-15
1.09985e-14
-1.51301e-14
-1.06785e-14
-3.71912e-14
-1.6892e-14
1.68926e-14
8.38575e-14
-9.78389e-15
-6.12383e-14
-4.42294e-14
-2.81183e-15
5.05418e-14
0
2.11419e-12
-8.3853e-13
1.49557e-13
-1.00084e-13
-3.64345e-14
2.01901e-14
1.33959e-14
5.24149e-14
1.01297e-14
-1.49319e-14
-1.26687e-14
5.76121e-15
-6.142e-14
-2.60222e-15
-2.5761e-14
2.75366e-14
2.58174e-14
2.42937e-14
-2.55858e-14
-2.71051e-14
1.16552e-12
1.34343e-15
-4.09967e-14
3.61599e-14
1.98972e-14
-3.8387e-14
4.09278e-15
-3.52363e-15
2.16984e-14
1.94785e-14
2.08381e-14
2.59398e-14
1.77764e-16
4.61475e-15
-1.21663e-15
-2.70981e-14
-2.58473e-14
9.6025e-15
6.82846e-15
0
-2.38524e-12
2.96761e-13
-1.23816e-15
8.28048e-15
-1.85121e-14
1.92216e-14
-1.02903e-14
-2.34391e-14
2.67178e-15
-2.99744e-15
-6.10863e-15
-2.82818e-15
-9.55087e-15
1.65613e-14
1.33144e-15
6.53762e-15
-2.03438e-14
1.03555e-14
-2.97307e-15
0
2.76472e-12
-5.53687e-13
1.22444e-13
-6.6811e-14
2.97203e-14
-4.53872e-16
-8.88097e-16
9.27203e-15
-3.709e-15
5.47293e-15
-1.57881e-14
1.46119e-14
-2.39153e-14
-1.25977e-14
7.19535e-15
-4.65483e-14
5.76533e-16
-8.65762e-16
4.57667e-14
0
5.14996e-13
-7.83118e-14
1.59161e-14
-1.02629e-14
-4.34317e-15
-4.84724e-15
-4.8523e-14
-1.37613e-15
5.55255e-14
3.48756e-14
-1.06098e-14
2.01193e-14
6.57373e-15
-6.43754e-14
-5.31523e-15
2.25487e-14
-1.22077e-14
-1.64014e-14
-8.08512e-15
-2.71051e-14
-3.57787e-12
4.21059e-13
-7.28031e-14
-5.65408e-15
-6.1419e-14
8.52949e-14
1.87398e-14
-3.38311e-14
-4.37249e-14
2.2749e-15
-2.80327e-14
4.04526e-15
1.78235e-14
-3.90621e-15
-2.18127e-14
3.07415e-14
-1.77839e-14
1.22008e-14
-3.66562e-15
0
1.87025e-12
-3.88189e-13
9.62277e-14
-2.67671e-14
-1.70832e-14
-3.3655e-16
-3.39178e-15
-9.00212e-16
7.33405e-14
-7.21917e-15
-1.65294e-14
7.55363e-15
-3.43051e-14
2.77939e-14
5.00326e-15
2.24493e-14
-1.84966e-14
2.01619e-14
-3.02316e-14
-2.71051e-14
2.1413e-12
-5.4528e-13
9.46905e-14
-2.69801e-14
4.19292e-14
1.33687e-15
-1.58732e-14
-2.41254e-14
-6.32637e-14
-1.78935e-14
-4.68558e-15
1.01278e-13
-5.22849e-14
-1.63716e-14
-1.48681e-14
-1.21298e-14
8.23391e-15
1.83925e-14
4.30973e-14
0
-2.6563e-12
9.36432e-13
-2.0636e-13
6.19277e-14
-4.12459e-14
-8.69886e-15
1.78013e-14
4.38342e-14
7.6082e-15
-8.15552e-15
6.25753e-15
-1.43833e-14
-9.55917e-16
3.50896e-14
7.02917e-14
1.98372e-15
-3.22145e-14
-2.54181e-14
-2.52735e-14
-2.71051e-14
8.13152e-13
-7.03799e-13
1.46948e-13
-2.33062e-14
3.29618e-14
1.01282e-14
4.86568e-15
-4.06468e-14
2.13931e-14
-9.4702e-15
-1.49617e-14
-1.45335e-14
1.55488e-14
1.31888e-14
-3.95306e-14
-3.97873e-14
-1.14205e-14
7.60073e-14
-1.60221e-14
0
-7.31836e-13
8.85203e-13
-1.7669e-13
1.08742e-13
-3.81407e-14
2.10569e-14
4.36686e-15
-7.30947e-14
-1.63154e-14
2.16066e-14
4.25826e-14
2.40218e-14
-1.89367e-14
-1.90971e-14
1.47083e-14
-1.21102e-14
-2.0297e-14
-1.70811e-14
5.18062e-14
0
1.76183e-12
-6.8572e-13
1.07132e-13
-4.28502e-14
-6.7179e-15
-2.18664e-14
3.37981e-14
-1.76512e-14
7.86102e-15
-7.40811e-15
-1.31863e-14
-4.80845e-15
5.27713e-15
7.20773e-15
-1.57734e-14
-9.11152e-15
2.18423e-14
-2.70494e-14
2.72316e-17
0
-2.08709e-12
3.87979e-13
-1.04599e-13
4.62889e-14
-2.15296e-14
4.14895e-14
1.87153e-14
-1.92893e-14
6.15064e-15
-3.95558e-15
-1.89871e-14
-6.90503e-15
1.62851e-14
-3.31256e-14
2.0253e-14
2.6567e-15
1.02613e-14
6.31757e-14
2.51348e-14
-2.71051e-14
-7.58942e-13
7.51044e-13
-1.20392e-13
1.60818e-14
3.7095e-15
-3.97304e-14
-4.36262e-15
-2.99046e-14
2.5476e-14
3.13941e-14
2.20919e-14
1.06444e-14
-6.13009e-15
-4.2313e-15
3.4927e-15
-1.34041e-14
1.54912e-14
-2.18183e-14
-1.607e-14
0
4.8518e-12
-1.64118e-12
2.54857e-13
-1.02235e-13
3.33274e-14
-3.69008e-15
1.65114e-14
9.10655e-17
-7.22908e-14
4.9672e-15
1.14507e-14
7.61736e-15
-6.38233e-15
-4.20146e-15
-4.8799e-14
2.47615e-14
-3.99809e-15
7.58995e-14
1.52712e-14
-2.71051e-14
-4.2826e-12
1.25799e-12
-2.48215e-13
1.54061e-13
-4.19851e-14
1.16807e-14
7.8226e-15
-3.51363e-14
8.21212e-15
4.10474e-14
-5.57228e-14
3.48697e-14
-4.0926e-15
2.45752e-15
-6.13358e-15
6.80357e-15
-1.49935e-14
-8.32305e-15
-2.85117e-14
0
-1.24683e-12
-1.90348e-13
1.60468e-15
-3.53627e-14
1.24396e-14
1.06544e-14
-1.25873e-15
1.39097e-14
-2.77659e-14
-2.05646e-15
3.80165e-14
2.6373e-14
-2.02043e-15
-2.33522e-14
1.02628e-14
3.46495e-14
-2.73079e-15
-1.04213e-15
-5.75805e-16
-2.71051e-14
2.60209e-12
-5.96311e-13
1.35525e-13
-2.71051e-14
0
0
2.71051e-14
0
-2.71051e-14
2.71051e-14
0
0
-2.71051e-14
0
2.71051e-14
-2.71051e-14
5.42101e-14
0
0
0
)
;

boundaryField
{
    movingWall
    {
        type            extrapolatedCalculated;
        value           nonuniform List<scalar> 
20
(
2.60209e-12
-5.96311e-13
1.35525e-13
-2.71051e-14
0
0
2.71051e-14
0
-2.71051e-14
2.71051e-14
0
0
-2.71051e-14
0
2.71051e-14
-2.71051e-14
5.42101e-14
0
0
0
)
;
    }
    fixedWalls
    {
        type            extrapolatedCalculated;
        value           nonuniform List<scalar> 
60
(
4.39102e-12
-6.80337e-12
2.11419e-12
1.16552e-12
-2.38524e-12
2.76472e-12
5.14996e-13
-3.57787e-12
1.87025e-12
2.1413e-12
-2.6563e-12
8.13152e-13
-7.31836e-13
1.76183e-12
-2.08709e-12
-7.58942e-13
4.8518e-12
-4.2826e-12
-1.24683e-12
2.60209e-12
0
0
-2.71051e-14
0
0
0
-2.71051e-14
0
-2.71051e-14
0
-2.71051e-14
0
0
0
-2.71051e-14
0
-2.71051e-14
0
-2.71051e-14
0
4.39102e-12
-1.08782e-12
2.22779e-13
-5.67658e-14
-4.95778e-14
3.91964e-14
-1.87783e-14
-1.63377e-15
-1.31818e-14
2.01741e-14
2.34974e-14
-2.60391e-14
2.58038e-14
-1.6643e-14
-1.3792e-14
1.43032e-14
1.37225e-14
1.6708e-14
-4.42127e-14
0
)
;
    }
    frontAndBack
    {
        type            empty;
    }
}


// ************************************************************************* //
