/*--------------------------------*- C++ -*----------------------------------*\
| =========                 |                                                 |
| \\      /  F ield         | OpenFOAM: The Open Source CFD Toolbox           |
|  \\    /   O peration     | Version:  2506                                  |
|   \\  /    A nd           | Website:  www.openfoam.com                      |
|    \\/     M anipulation  |                                                 |
\*---------------------------------------------------------------------------*/
FoamFile
{
    version     2.0;
    format      ascii;
    arch        "LSB;label=32;scalar=64";
    class       volScalarField;
    location    "7.875";
    object      enstrophyField;
}
// * * * * * * * * * * * * * * * * * * * * * * * * * * * * * * * * * * * * * //

dimensions      [0 0 -2 0 0 0 0];

internalField   nonuniform List<scalar> 
400
(
6.51026e-24
6.36966e-24
2.38947e-25
2.68841e-26
9.37839e-30
3.45835e-30
1.41369e-29
6.82764e-28
5.64518e-30
2.4587e-28
1.17484e-27
3.64019e-33
3.86547e-28
1.49989e-27
1.67317e-27
1.57362e-29
9.78706e-29
8.39154e-30
1.25467e-28
2.75251e-29
1.19746e-26
2.39175e-26
1.05009e-28
9.4303e-29
4.19814e-27
3.84034e-27
2.65774e-27
2.42588e-27
1.36623e-27
3.69452e-27
6.12508e-27
1.60188e-27
4.17797e-27
7.63781e-27
1.90274e-27
1.20097e-27
9.0841e-28
1.07594e-27
2.80813e-29
8.19815e-30
4.22372e-24
2.39535e-24
1.31574e-25
8.36298e-27
1.20655e-26
4.79657e-27
5.09607e-27
3.32026e-27
1.09722e-27
1.44779e-27
4.03102e-27
3.514e-27
1.00672e-27
8.75746e-28
5.05615e-29
1.58767e-27
4.28904e-27
1.80223e-27
2.65428e-28
1.71715e-29
1.93415e-24
1.30061e-24
7.37526e-26
7.88585e-27
1.23231e-27
1.57506e-26
1.36083e-26
4.55932e-28
1.13321e-27
2.69073e-28
3.13582e-28
3.18155e-29
4.4208e-29
1.6829e-27
1.8747e-27
3.80794e-28
6.18286e-28
3.72731e-29
2.82648e-28
1.40651e-29
3.46142e-25
5.35326e-25
3.58939e-26
2.84388e-28
1.59122e-27
5.77503e-27
2.06807e-27
2.05274e-29
7.14838e-28
5.07925e-28
4.96268e-28
1.17383e-30
1.27953e-27
1.60297e-27
4.357e-28
4.5214e-28
1.5538e-27
1.308e-27
3.89694e-29
5.30683e-31
9.3972e-26
9.90328e-26
8.31642e-27
2.26446e-27
1.98123e-27
1.04685e-26
1.34606e-26
8.16511e-27
9.7396e-27
2.6662e-28
2.61629e-28
4.20938e-28
6.32957e-27
3.58821e-29
8.72451e-28
3.03481e-30
1.34825e-27
1.85326e-27
4.77756e-29
5.19246e-29
5.30852e-25
1.12539e-24
7.96022e-26
3.40388e-30
1.37845e-26
1.04125e-28
1.77208e-28
3.71779e-27
5.05802e-27
8.12292e-27
4.48257e-27
5.22273e-27
1.69351e-27
1.23725e-27
1.78818e-27
4.12457e-29
5.84253e-29
2.75867e-30
7.95065e-30
2.464e-28
3.26562e-26
2.04525e-26
5.3791e-28
2.61482e-28
3.14491e-27
4.96304e-28
3.7086e-27
4.10431e-27
4.17989e-27
4.7939e-28
3.95523e-28
4.74611e-28
2.56872e-29
1.89933e-27
1.46848e-27
3.1038e-28
3.95939e-28
2.09401e-29
9.88972e-29
4.39765e-28
9.03025e-25
1.52332e-24
1.12921e-25
1.99153e-28
1.65817e-26
5.53099e-27
1.73917e-29
5.76615e-27
3.98748e-27
3.94884e-27
3.08303e-27
9.82449e-27
3.37013e-27
2.41936e-28
1.90569e-27
4.18875e-28
6.73617e-28
2.92365e-29
3.19714e-28
1.14965e-29
2.10557e-24
1.47171e-24
8.11922e-26
7.24577e-29
2.66549e-27
2.09028e-27
6.47002e-27
1.18076e-27
4.1396e-28
3.4071e-28
7.63897e-28
8.61475e-29
5.50653e-28
4.79591e-29
2.24993e-27
1.37517e-27
1.15795e-28
2.98241e-29
1.03727e-29
6.7832e-29
5.90403e-26
3.41411e-26
5.78523e-28
2.29144e-27
6.95419e-27
4.45387e-27
6.81278e-30
8.72612e-28
1.2324e-27
2.88391e-27
6.01165e-27
1.94773e-28
2.86956e-28
3.89974e-27
2.06098e-27
2.27605e-28
1.17109e-28
1.46746e-27
6.0796e-30
4.27405e-29
7.43726e-27
2.02389e-25
1.11868e-26
1.29634e-28
3.36182e-28
3.38551e-29
2.02853e-30
6.37298e-27
3.1183e-27
1.12767e-27
5.34816e-27
1.47777e-27
3.25545e-28
1.30776e-27
1.69371e-27
7.21244e-27
4.30771e-27
1.86758e-27
5.44915e-30
8.38494e-29
1.20309e-26
1.22201e-25
1.43128e-28
5.30277e-27
1.20324e-27
1.10321e-27
1.00954e-30
1.13332e-28
5.6178e-28
1.33541e-27
2.18414e-33
1.65087e-27
1.35222e-27
2.41723e-30
3.80203e-30
2.10526e-27
3.65042e-27
2.43657e-27
6.38921e-29
3.42923e-31
8.38976e-25
1.24989e-25
1.44438e-26
3.04844e-28
4.30959e-27
8.11032e-27
7.5249e-27
6.50337e-27
1.21148e-26
8.23139e-27
5.61153e-27
4.22051e-27
3.94754e-29
1.24345e-27
4.74771e-29
3.85909e-30
3.53754e-31
1.34757e-27
3.43768e-30
2.0396e-29
3.80452e-24
1.58903e-24
8.25223e-26
3.55595e-27
5.28387e-28
5.23295e-28
1.70619e-28
5.74603e-28
4.61365e-28
6.73061e-31
7.01111e-33
1.83988e-30
4.90082e-30
4.1525e-28
5.4222e-31
2.98957e-29
5.00832e-29
4.48371e-30
1.15444e-27
4.30012e-30
4.48467e-24
2.84136e-24
1.71298e-25
1.73938e-27
4.18773e-27
2.69534e-27
1.35963e-27
1.07948e-27
7.67041e-28
3.56528e-27
8.77248e-27
1.82765e-27
1.35012e-27
4.30993e-28
1.91246e-27
2.02191e-27
1.27566e-27
1.15917e-28
2.04418e-27
1.16714e-28
3.27879e-25
8.13726e-25
5.72051e-26
2.4784e-27
3.69828e-29
1.27457e-28
1.87075e-28
2.44052e-28
2.44898e-28
2.79778e-27
6.67158e-28
1.0972e-27
8.64474e-28
1.89595e-27
6.99436e-28
3.42569e-30
1.11143e-29
9.4352e-28
3.35784e-29
1.42494e-28
1.82267e-24
1.16835e-24
7.50954e-26
1.21677e-28
6.85025e-27
5.78567e-27
1.26148e-27
5.61219e-27
2.05184e-27
3.9944e-29
3.87977e-27
2.09158e-27
3.24049e-27
1.23927e-27
6.31674e-28
7.25373e-27
5.70072e-27
3.61189e-29
1.81959e-28
1.42801e-31
3.63856e-24
2.8276e-24
1.47317e-25
6.43082e-27
4.68506e-27
1.66825e-27
2.44588e-27
1.27626e-26
7.61398e-27
1.04735e-27
1.43727e-27
3.11047e-29
2.20232e-28
2.09056e-29
2.34822e-27
4.58193e-28
2.08309e-27
5.18183e-28
5.46492e-28
2.49017e-28
2.3793e-25
2.13532e-26
5.14859e-27
1.70876e-29
5.91554e-28
5.14696e-29
1.0622e-27
1.34906e-27
1.41647e-27
4.89843e-30
1.50915e-27
1.97562e-29
7.10941e-28
3.4909e-29
4.04372e-29
7.23892e-28
3.34779e-29
4.30002e-30
3.45181e-30
2.36833e-30
)
;

boundaryField
{
    movingWall
    {
        type            calculated;
        value           nonuniform List<scalar> 
20
(
5.81057e-25
3.57012e-28
4.92096e-26
1.68328e-26
3.74681e-26
2.24505e-26
3.33684e-26
4.76157e-26
2.44337e-26
1.63381e-26
8.97206e-27
1.28498e-27
5.62096e-29
3.4909e-29
4.04372e-29
5.98932e-29
3.25102e-27
4.30002e-30
3.45181e-30
2.36833e-30
)
;
    }
    fixedWalls
    {
        type            calculated;
        value           nonuniform List<scalar> 
60
(
1.14029e-22
4.42985e-25
4.96207e-23
2.89252e-23
8.19339e-24
2.92354e-24
2.25935e-23
2.31458e-25
3.09092e-23
2.5967e-23
1.99055e-25
1.68001e-24
9.69717e-25
2.92816e-24
3.07636e-23
5.54545e-23
1.51736e-23
2.44932e-23
5.36612e-23
4.49913e-25
4.12729e-29
1.51777e-28
2.84424e-29
2.89356e-31
4.47354e-29
2.76884e-28
2.88594e-28
2.31453e-28
2.06348e-28
5.4282e-28
1.90475e-29
9.33395e-29
4.1558e-30
4.7398e-29
8.77637e-30
6.47686e-30
3.6578e-28
1.11332e-29
4.21488e-29
7.48924e-29
4.86667e-25
6.14324e-24
3.24391e-26
6.94188e-26
1.06872e-26
9.22852e-27
1.67359e-26
1.02352e-26
4.24839e-27
8.23005e-27
3.39866e-26
1.57924e-26
1.59017e-26
2.47764e-26
9.3659e-27
7.52677e-28
7.10861e-27
3.58883e-27
1.81502e-27
2.75251e-29
)
;
    }
    frontAndBack
    {
        type            empty;
    }
}


// ************************************************************************* //
