/*--------------------------------*- C++ -*----------------------------------*\
| =========                 |                                                 |
| \\      /  F ield         | OpenFOAM: The Open Source CFD Toolbox           |
|  \\    /   O peration     | Version:  2506                                  |
|   \\  /    A nd           | Website:  www.openfoam.com                      |
|    \\/     M anipulation  |                                                 |
\*---------------------------------------------------------------------------*/
FoamFile
{
    version     2.0;
    format      ascii;
    arch        "LSB;label=32;scalar=64";
    class       volScalarField;
    location    "7.875";
    object      flowTypeField;
}
// * * * * * * * * * * * * * * * * * * * * * * * * * * * * * * * * * * * * * //

dimensions      [0 0 0 0 0 0 0];

internalField   nonuniform List<scalar> 
400
(
0.249791
-0.00533307
-0.0832138
-0.440734
0.901627
0.855225
0.744635
-0.350351
0.657015
0.385693
0.188607
0.960241
0.247734
0.103477
0.0665183
0.549026
0.252568
0.67423
0.658119
0.21811
0.963581
0.798177
0.927423
0.84753
-0.125226
-0.0771031
0.110601
0.189839
0.0358663
-0.0554461
0.0113581
0.00955217
-0.0546985
0.0909725
-0.00792849
0.327048
0.280031
0.251104
0.814295
0.00383235
-0.0877055
0.0154989
-0.354803
0.140623
0.0498085
-0.195142
-0.152222
0.161221
0.13455
0.0102524
-0.102695
-0.0291241
0.375443
0.22784
0.405385
0.261466
-0.063978
0.0137224
0.361645
0.717514
0.00452694
0.0386357
-0.109578
-0.180446
0.345737
-0.271893
-0.17524
0.308256
0.137223
0.165616
0.317583
0.554916
0.187068
-0.0594252
-0.126447
0.25201
0.097935
0.369106
0.133908
0.00357369
0.611757
0.0218887
0.142103
0.423579
0.395067
-0.0346781
-0.0249801
0.855931
0.260269
0.324029
0.298513
0.919365
0.0794986
0.0896506
-0.0817256
-0.0737099
0.0803392
0.0558655
0.285111
0.670992
0.802322
0.430873
0.254099
0.153039
-0.0718872
-0.327788
-0.169302
-0.113442
-0.0285069
0.177218
0.40744
0.132334
-0.261184
0.0256965
-0.461386
0.92132
0.0473949
-0.0957482
0.764077
0.0111854
0.301027
0.113551
-0.135433
0.961829
-0.0633006
0.620348
0.608275
-0.0505053
0.142891
-0.0182255
-0.117088
0.159469
0.282318
0.317124
-0.0714083
0.634125
0.308063
0.763641
0.00340365
0.385928
0.909011
0.7307
0.790717
0.66717
0.175185
0.661028
-0.0446381
0.0942323
0.070586
-0.113438
0.118562
0.526033
0.852345
0.0433754
0.0422095
0.545096
-0.0159174
0.0229704
0.473477
-0.0773263
0.390155
0.108011
-0.112937
0.81257
-0.336593
0.0304695
0.764674
0.0108575
0.0885359
-0.0118091
-0.207792
-0.290039
0.0413219
0.333034
-0.137029
0.237198
0.0678661
0.263033
0.304295
0.766722
0.160192
-0.062477
-0.334448
0.817866
-0.160496
0.0462712
-0.00812241
0.186917
0.468704
0.097598
0.296401
0.78978
0.582183
0.60556
-0.144278
0.0408024
0.000289275
0.651063
0.874111
0.0399399
0.806421
0.565192
0.764719
0.250955
-0.0524549
-0.149066
0.835076
0.309894
-0.0899957
-0.298367
0.0284301
0.0575885
0.117542
-0.336782
0.158581
0.151649
0.670827
0.112085
0.823492
0.627216
0.823009
0.199887
0.237357
0.43462
0.286844
0.824034
0.94489
-0.00213906
0.08581
0.122587
0.073766
0.0975267
0.319792
0.0598975
0.255306
0.0185855
-0.13632
0.339742
0.823239
0.00190411
0.810224
0.478779
0.896681
0.229049
0.226403
-0.456912
0.0374245
0.693591
-0.131703
0.319324
0.981848
0.0794465
0.0484611
0.863898
0.837352
-0.194364
-0.0438959
-0.245063
0.740366
0.709138
0.222398
0.206186
-0.230197
0.340721
-0.138652
-0.126266
-0.0928134
-0.019208
-0.147474
-0.182015
0.0228353
0.151706
0.0446018
0.0791413
0.0503025
0.247412
0.868423
0.305792
0.203559
0.0011746
0.0168903
-0.121415
-0.391872
-0.252994
-0.036607
0.543116
0.498365
0.142909
0.328666
0.508145
0.967168
0.905432
0.624186
0.479007
0.768646
0.386169
0.397173
0.909891
0.194295
0.831096
-0.419162
0.010874
-0.28771
0.33673
-0.676214
-0.16975
-0.773066
-0.0509654
0.0415289
-0.284796
-0.207634
-0.0557213
0.0442807
-0.0785717
-0.11624
-0.020432
0.0713418
0.452587
-0.133176
0.433685
0.759449
0.2696
0.0746112
0.244777
0.62364
0.116462
0.284567
0.488121
0.756271
-0.0742273
-0.108545
0.135295
0.22998
-0.13417
0.350504
0.920867
0.797604
0.45275
0.0989996
0.426641
0.487158
0.133146
-0.0876664
0.853067
0.0371114
0.0174289
0.117199
0.128735
-0.179199
0.789599
0.103043
0.193974
0.0102685
0.0868264
-0.17398
-0.059686
0.0199608
0.048686
0.469169
0.86095
-0.0372376
-0.011905
-0.199854
0.0268778
-0.188776
-0.0644852
-0.262464
-0.149898
-0.0954557
0.250625
0.283016
0.657867
0.0046707
0.693433
-0.0877661
0.194213
-0.0296557
-0.136176
-0.213412
0.374924
0.661339
0.509237
0.210618
0.62064
-0.126786
0.269779
0.22455
0.0667902
0.31271
0.832819
0.116899
0.77802
0.050936
0.0784541
0.459106
0.367511
0.795152
0.0458138
0.0181516
0.601574
)
;

boundaryField
{
    movingWall
    {
        type            calculated;
        value           nonuniform List<scalar> 
20
(
0.0471861
0.880006
-0.167843
-0.0149488
-0.0265762
0.0456914
0.0412521
0.0139325
0.0460468
0.00775314
0.0333016
0.195474
0.564213
0.123895
0.684674
0.770069
0.211152
0.108446
0.311534
0.725838
)
;
    }
    fixedWalls
    {
        type            calculated;
        value           nonuniform List<scalar> 
60
(
0.00209325
0.835599
-0.0583508
-0.0535487
0.12482
0.319494
0.0555468
0.789551
0.0502703
-0.0527418
0.755254
0.383366
0.647271
0.224549
-0.154735
-0.047838
0.295706
0.0954231
-0.0471106
0.587204
0.168455
0.000235513
0.109462
0.080801
0.728521
0.00221898
0.48409
0.208989
0.0897653
0.00557326
0.453685
0.00171582
0.450135
0.000524125
0.857519
0.846932
0.431064
0.522333
0.775056
0.133649
0.910546
0.175074
0.676012
-0.395589
0.216607
0.0203301
-0.0100496
-0.0723006
-0.0182271
0.0564933
0.0264088
0.0145413
0.00757108
0.0064679
-0.0063063
0.124897
0.115564
0.173234
0.238737
0.313363
)
;
    }
    frontAndBack
    {
        type            empty;
    }
}


// ************************************************************************* //
