/*--------------------------------*- C++ -*----------------------------------*\
| =========                 |                                                 |
| \\      /  F ield         | OpenFOAM: The Open Source CFD Toolbox           |
|  \\    /   O peration     | Version:  2506                                  |
|   \\  /    A nd           | Website:  www.openfoam.com                      |
|    \\/     M anipulation  |                                                 |
\*---------------------------------------------------------------------------*/
FoamFile
{
    version     2.0;
    format      ascii;
    arch        "LSB;label=32;scalar=64";
    class       surfaceScalarField;
    location    "7.875";
    object      fluxField;
}
// * * * * * * * * * * * * * * * * * * * * * * * * * * * * * * * * * * * * * //

dimensions      [0 3 -1 0 0 0 0];

oriented        oriented;

internalField   nonuniform List<scalar> 
760
(
-5e-05
9.68796e-19
-5e-05
-1.63534e-19
-5e-05
4.21421e-20
-5e-05
-7.41518e-21
-5e-05
1.15808e-21
-5e-05
3.02284e-21
-5e-05
2.08168e-21
-5e-05
-4.08442e-22
-5e-05
-3.29546e-21
-5e-05
-1.73275e-21
-5e-05
-9.01903e-22
-5e-05
2.6648e-22
-5e-05
-3.25315e-22
-5e-05
2.61551e-21
-5e-05
3.32826e-21
-5e-05
3.5758e-21
-5e-05
3.43064e-21
-5e-05
4.177e-21
-5e-05
2.49935e-21
-1.65677e-21
-5e-05
-4.92645e-19
-5e-05
8.9325e-20
-5e-05
-2.04606e-20
-5e-05
5.36056e-21
-5e-05
1.75243e-21
-5e-05
2.98556e-21
-5e-05
-8.23838e-22
-5e-05
-4.02664e-21
-5e-05
-3.78252e-21
-5e-05
-2.66962e-21
-5e-05
-2.52153e-21
-5e-05
-4.22299e-21
-5e-05
-2.55312e-21
-5e-05
6.35583e-22
-5e-05
4.33029e-21
-5e-05
5.01921e-21
-5e-05
2.49516e-21
-5e-05
-7.02958e-22
-5e-05
-9.17069e-22
-1.56031e-21
-5e-05
-1.13372e-19
-5e-05
1.39842e-20
-5e-05
3.50804e-21
-5e-05
8.86026e-21
-5e-05
1.12202e-20
-5e-05
5.04753e-21
-5e-05
-3.42729e-21
-5e-05
-7.22506e-21
-5e-05
-4.24384e-21
-5e-05
-3.73299e-21
-5e-05
-3.16718e-21
-5e-05
-5.33596e-21
-5e-05
-1.80246e-21
-5e-05
-6.50556e-22
-5e-05
3.3602e-22
-5e-05
1.07877e-22
-5e-05
-3.21926e-22
-5e-05
-7.02843e-22
-5e-05
3.79806e-22
-5.18933e-22
-5e-05
1.95263e-19
-5e-05
-1.99929e-20
-5e-05
1.68559e-20
-5e-05
2.26371e-21
-5e-05
4.97431e-21
-5e-05
3.95577e-21
-5e-05
1.0232e-21
-5e-05
-8.80908e-22
-5e-05
-1.35166e-21
-5e-05
-1.90663e-21
-5e-05
-1.56673e-21
-5e-05
-2.9131e-22
-5e-05
4.4441e-23
-5e-05
1.15369e-21
-5e-05
-3.04158e-22
-5e-05
1.73171e-24
-5e-05
3.14438e-22
-5e-05
2.40063e-21
-5e-05
1.70712e-21
-6.38727e-22
-5e-05
-4.04133e-19
-5e-05
8.77428e-20
-5e-05
-2.06383e-20
-5e-05
-4.70614e-21
-5e-05
-1.14043e-20
-5e-05
-1.97087e-21
-5e-05
4.20368e-21
-5e-05
7.69275e-21
-5e-05
7.44421e-21
-5e-05
6.0269e-21
-5e-05
5.24911e-21
-5e-05
6.06922e-21
-5e-05
-2.38772e-21
-5e-05
-2.63595e-21
-5e-05
3.32861e-22
-5e-05
1.63441e-21
-5e-05
1.69032e-21
-5e-05
2.58888e-21
-5e-05
-7.43267e-22
-2.06195e-21
-5e-05
2.87638e-19
-5e-05
-6.38829e-20
-5e-05
1.02823e-20
-5e-05
-9.92648e-21
-5e-05
-6.12245e-21
-5e-05
-1.13468e-22
-5e-05
-2.22024e-22
-5e-05
2.31801e-21
-5e-05
5.84901e-21
-5e-05
8.1445e-21
-5e-05
9.6055e-21
-5e-05
1.04293e-20
-5e-05
7.9743e-22
-5e-05
-3.14943e-21
-5e-05
1.79884e-21
-5e-05
1.91545e-21
-5e-05
1.44133e-22
-5e-05
-2.1644e-22
-5e-05
-2.11086e-21
-1.66329e-21
-5e-05
4.09797e-19
-5e-05
-8.73406e-20
-5e-05
2.43078e-20
-5e-05
-2.56574e-21
-5e-05
5.69047e-21
-5e-05
5.56445e-21
-5e-05
1.42177e-21
-5e-05
-3.44032e-22
-5e-05
3.28852e-22
-5e-05
1.94265e-21
-5e-05
4.12382e-21
-5e-05
5.02984e-21
-5e-05
1.64343e-21
-5e-05
-2.54132e-21
-5e-05
-1.32881e-21
-5e-05
-1.13909e-21
-5e-05
-3.05193e-21
-5e-05
-4.10035e-21
-5e-05
-2.02128e-21
1.56842e-22
-5e-05
-5.3901e-19
-5e-05
1.18817e-19
-5e-05
-1.82008e-20
-5e-05
1.2139e-20
-5e-05
4.97404e-21
-5e-05
9.94935e-22
-5e-05
4.68494e-21
-5e-05
5.09476e-21
-5e-05
2.62129e-21
-5e-05
5.68725e-22
-5e-05
-2.31913e-22
-5e-05
-5.76495e-21
-5e-05
-9.09665e-21
-5e-05
-7.75282e-21
-5e-05
-5.45319e-21
-5e-05
-5.86715e-21
-5e-05
-4.44597e-21
-5e-05
-3.72607e-21
-5e-05
-9.16404e-22
-9.20322e-22
-5e-05
-9.85948e-20
-5e-05
4.52544e-20
-5e-05
-3.04814e-21
-5e-05
6.86076e-21
-5e-05
2.50547e-21
-5e-05
-8.41375e-23
-5e-05
5.92832e-21
-5e-05
6.55121e-21
-5e-05
4.78259e-21
-5e-05
4.97147e-21
-5e-05
2.6439e-21
-5e-05
-4.88786e-21
-5e-05
-8.57627e-21
-5e-05
-6.60405e-21
-5e-05
-5.52545e-21
-5e-05
-7.94021e-21
-5e-05
-4.62415e-21
-5e-05
-1.73579e-21
-5e-05
-7.81648e-22
-3.329e-21
-5e-05
3.87256e-19
-5e-05
-5.50049e-20
-5e-05
2.36726e-20
-5e-05
3.12303e-23
-5e-05
3.70603e-21
-5e-05
7.11048e-21
-5e-05
9.58423e-21
-5e-05
7.52118e-21
-5e-05
4.51287e-21
-5e-05
2.3029e-21
-5e-05
-1.17139e-21
-5e-05
-1.78553e-21
-5e-05
4.813e-22
-5e-05
-4.09289e-21
-5e-05
-1.04933e-20
-5e-05
-9.80871e-21
-5e-05
-4.71779e-21
-5e-05
-2.17815e-21
-5e-05
-2.7782e-21
-2.44507e-21
-5e-05
-1.67552e-19
-5e-05
5.79251e-20
-5e-05
2.62015e-21
-5e-05
8.70565e-21
-5e-05
3.24106e-21
-5e-05
4.60155e-21
-5e-05
4.45031e-21
-5e-05
4.18228e-21
-5e-05
1.90205e-21
-5e-05
-2.03888e-21
-5e-05
-5.21188e-21
-5e-05
-3.59584e-21
-5e-05
-2.38979e-22
-5e-05
-4.78012e-21
-5e-05
-9.53213e-21
-5e-05
-6.28033e-21
-5e-05
-1.27736e-21
-5e-05
4.21747e-22
-5e-05
4.57883e-22
4.68184e-22
-5e-05
-5.29359e-20
-5e-05
2.05619e-20
-5e-05
2.85574e-21
-5e-05
7.72597e-21
-5e-05
1.46418e-21
-5e-05
-4.24422e-21
-5e-05
-5.55984e-21
-5e-05
-3.38543e-21
-5e-05
-1.42798e-21
-5e-05
-2.36755e-21
-5e-05
-3.74042e-21
-5e-05
-3.63337e-21
-5e-05
-2.88906e-21
-5e-05
-3.47906e-21
-5e-05
-3.10639e-21
-5e-05
-3.17057e-21
-5e-05
-2.85514e-21
-5e-05
-1.32697e-21
-5e-05
2.77075e-21
6.73754e-22
-5e-05
8.63557e-21
-5e-05
-2.31607e-21
-5e-05
3.26139e-21
-5e-05
6.85675e-21
-5e-05
4.01735e-21
-5e-05
-1.51203e-21
-5e-05
-5.68455e-21
-5e-05
-4.72115e-21
-5e-05
-4.07885e-21
-5e-05
-8.15087e-21
-5e-05
-9.68315e-21
-5e-05
-7.54708e-21
-5e-05
-4.73418e-21
-5e-05
-4.77427e-21
-5e-05
-3.09919e-21
-5e-05
-3.02754e-21
-5e-05
-5.07426e-21
-5e-05
-4.27027e-21
-5e-05
-6.0097e-22
-7.88707e-22
-5e-05
3.13586e-19
-5e-05
-4.94572e-20
-5e-05
1.32306e-20
-5e-05
2.83999e-21
-5e-05
5.09679e-21
-5e-05
1.30966e-21
-5e-05
-5.103e-21
-5e-05
-4.41281e-21
-5e-05
-4.81101e-21
-5e-05
-8.62829e-21
-5e-05
-1.00728e-20
-5e-05
-7.97838e-21
-5e-05
-5.45698e-21
-5e-05
-4.97433e-21
-5e-05
-3.94335e-21
-5e-05
-2.27788e-21
-5e-05
-1.31569e-21
-5e-05
1.39155e-23
-5e-05
6.8079e-24
-8.7037e-22
-5e-05
-1.89986e-19
-5e-05
4.27846e-20
-5e-05
-5.82091e-21
-5e-05
4.79596e-21
-5e-05
1.39385e-21
-5e-05
-3.18014e-21
-5e-05
-8.87371e-21
-5e-05
-1.15986e-20
-5e-05
-1.20149e-20
-5e-05
-7.76516e-21
-5e-05
-4.74678e-21
-5e-05
-1.72626e-21
-5e-05
-2.70499e-21
-5e-05
-1.50513e-21
-5e-05
-1.71303e-21
-5e-05
6.64175e-22
-5e-05
2.56533e-21
-5e-05
2.24139e-21
-5e-05
-4.92558e-22
-1.73097e-21
-5e-05
-2.25815e-19
-5e-05
3.19069e-20
-5e-05
-2.993e-21
-5e-05
4.02044e-21
-5e-05
9.27375e-22
-5e-05
-3.15633e-21
-5e-05
-7.86692e-21
-5e-05
-1.42524e-20
-5e-05
-1.39598e-20
-5e-05
-5.704e-21
-5e-05
-1.2533e-21
-5e-05
2.66111e-21
-5e-05
-1.53252e-21
-5e-05
-1.05782e-21
-5e-05
8.73175e-22
-5e-05
3.42525e-21
-5e-05
3.87279e-21
-5e-05
1.3217e-21
-5e-05
-4.0175e-21
-3.15958e-21
-5e-05
7.648e-19
-5e-05
-1.52796e-19
-5e-05
3.66092e-20
-5e-05
-5.22984e-21
-5e-05
1.55559e-21
-5e-05
-9.2252e-22
-5e-05
-2.64842e-21
-5e-05
-6.7535e-21
-5e-05
-4.52017e-21
-5e-05
1.2418e-21
-5e-05
2.86268e-21
-5e-05
1.90434e-21
-5e-05
-1.59558e-21
-5e-05
-1.05036e-21
-5e-05
1.35277e-21
-5e-05
-5.85894e-22
-5e-05
-9.99524e-22
-5e-05
-1.35391e-21
-5e-05
-2.95846e-21
-1.39554e-21
-5e-05
-1.99874e-19
-5e-05
4.34482e-20
-5e-05
-7.84354e-21
-5e-05
4.63399e-21
-5e-05
3.05626e-21
-5e-05
2.92017e-21
-5e-05
1.95565e-21
-5e-05
-2.0078e-21
-5e-05
-4.72323e-21
-5e-05
-3.29069e-21
-5e-05
-3.78162e-22
-5e-05
-4.8351e-21
-5e-05
-1.02315e-21
-5e-05
6.14381e-22
-5e-05
-1.53339e-21
-5e-05
-5.07537e-21
-5e-05
-3.74837e-21
-5e-05
-2.08076e-21
-5e-05
-3.51657e-22
1.41515e-21
-5e-05
-5.83109e-19
-5e-05
1.01491e-19
-5e-05
-2.67039e-20
-5e-05
4.71185e-21
-5e-05
3.10989e-21
-5e-05
2.66361e-21
-5e-05
-3.14683e-22
-5e-05
-3.29883e-21
-5e-05
-6.94147e-21
-5e-05
-7.29038e-21
-5e-05
-4.0484e-21
-5e-05
-6.95929e-21
-5e-05
-5.05108e-22
-5e-05
9.38224e-22
-5e-05
-4.21058e-21
-5e-05
-4.89014e-21
-5e-05
-6.82698e-22
-5e-05
-2.60533e-22
-5e-05
-1.43951e-22
1.88515e-21
-5e-05
-5e-05
-5e-05
-5e-05
-5e-05
-5e-05
-5e-05
-5e-05
-5e-05
-5e-05
-5e-05
-5e-05
-5e-05
-5e-05
-5e-05
-5e-05
-5e-05
-5e-05
-5e-05
)
;

boundaryField
{
    movingWall
    {
        type            calculated;
        value           uniform -0;
    }
    fixedWalls
    {
        type            calculated;
        value           nonuniform List<scalar> 
60
(
5e-05
5e-05
5e-05
5e-05
5e-05
5e-05
5e-05
5e-05
5e-05
5e-05
5e-05
5e-05
5e-05
5e-05
5e-05
5e-05
5e-05
5e-05
5e-05
5e-05
-5e-05
-5e-05
-5e-05
-5e-05
-5e-05
-5e-05
-5e-05
-5e-05
-5e-05
-5e-05
-5e-05
-5e-05
-5e-05
-5e-05
-5e-05
-5e-05
-5e-05
-5e-05
-5e-05
-5e-05
0
0
0
0
0
0
0
0
0
0
0
0
0
0
0
0
0
0
0
0
)
;
    }
    frontAndBack
    {
        type            empty;
    }
}


// ************************************************************************* //
