/*--------------------------------*- C++ -*----------------------------------*\
| =========                 |                                                 |
| \\      /  F ield         | OpenFOAM: The Open Source CFD Toolbox           |
|  \\    /   O peration     | Version:  2506                                  |
|   \\  /    A nd           | Website:  www.openfoam.com                      |
|    \\/     M anipulation  |                                                 |
\*---------------------------------------------------------------------------*/
FoamFile
{
    version     2.0;
    format      ascii;
    arch        "LSB;label=32;scalar=64";
    class       volTensorField;
    location    "7.875";
    object      gradU;
}
// * * * * * * * * * * * * * * * * * * * * * * * * * * * * * * * * * * * * * //

dimensions      [0 0 -1 0 0 0 0];

internalField   nonuniform List<tensor> 
400
(
(5.14996e-13 2.98498e-12 0 -6.23416e-13 3.87519e-12 0 0 0 0)
(-4.33681e-13 -3.4608e-12 0 1.0842e-13 -6.54136e-13 0 0 0 0)
(5.42101e-14 6.09983e-13 0 -8.13152e-14 1.68569e-13 0 0 0 0)
(-2.71051e-14 -1.50565e-13 0 8.13152e-14 -2.96607e-14 0 0 0 0)
(-5.42101e-14 3.1436e-14 0 2.71051e-14 4.63234e-15 0 0 0 0)
(2.71051e-14 -2.62996e-15 0 0 1.20914e-14 0 0 0 0)
(-2.71051e-14 -5.31731e-15 0 0 8.32671e-15 0 0 0 0)
(0 -9.84799e-15 0 2.71051e-14 -1.63377e-15 0 0 0 0)
(0 -3.36011e-15 0 0 -1.31818e-14 0 0 0 0)
(2.71051e-14 4.92985e-15 0 2.71051e-14 -6.93099e-15 0 0 0 0)
(2.71051e-14 5.73669e-15 0 5.42101e-14 -3.60761e-15 0 0 0 0)
(-2.71051e-14 -8.53251e-17 0 0 1.06592e-15 0 0 0 0)
(2.71051e-14 -6.99528e-16 0 2.71051e-14 -1.30126e-15 0 0 0 0)
(-2.71051e-14 -5.60084e-16 0 5.42101e-14 1.0462e-14 0 0 0 0)
(-2.71051e-14 -3.63737e-15 0 5.42101e-14 1.33131e-14 0 0 0 0)
(0 5.61003e-15 0 0 1.43032e-14 0 0 0 0)
(0 1.39908e-14 0 0 1.37225e-14 0 0 0 0)
(0 4.09672e-15 0 0 1.6708e-14 0 0 0 0)
(-5.42101e-14 -1.58409e-14 0 0 9.99741e-15 0 0 0 0)
(0 -7.41958e-15 0 0 -6.62707e-15 0 0 0 0)
(-9.48677e-13 2.36071e-13 0 8.13152e-14 -5.84577e-12 0 0 0 0)
(9.21572e-13 -2.45817e-13 0 -2.71051e-14 1.01144e-12 0 0 0 0)
(-1.35525e-13 1.4492e-14 0 0 -2.50411e-13 0 0 0 0)
(1.0842e-13 -1.33717e-14 0 -2.71051e-14 5.11029e-14 0 0 0 0)
(0 1.03161e-14 0 -8.13152e-14 2.37737e-15 0 0 0 0)
(0 6.32433e-15 0 -8.13152e-14 -1.49117e-16 0 0 0 0)
(0 -8.40782e-15 0 -8.13152e-14 -1.16221e-14 0 0 0 0)
(2.71051e-14 -1.16605e-14 0 -8.13152e-14 -1.44728e-14 0 0 0 0)
(0 -1.93711e-15 0 -5.42101e-14 -1.94825e-15 0 0 0 0)
(0 4.64436e-15 0 -8.13152e-14 -3.74749e-15 0 0 0 0)
(-2.71051e-14 2.26022e-15 0 -1.0842e-13 -6.47852e-15 0 0 0 0)
(0 2.39168e-15 0 -5.42101e-14 -1.79579e-14 0 0 0 0)
(2.71051e-14 1.00956e-14 0 -8.13152e-14 -8.91124e-15 0 0 0 0)
(8.13152e-14 1.51744e-14 0 -1.0842e-13 -7.91971e-15 0 0 0 0)
(-2.71051e-14 7.47852e-15 0 -5.42101e-14 4.00812e-15 0 0 0 0)
(-5.42101e-14 -5.20054e-15 0 -5.42101e-14 5.77366e-15 0 0 0 0)
(-2.71051e-14 -1.15859e-14 0 -5.42101e-14 -3.74188e-15 0 0 0 0)
(2.71051e-14 -7.82185e-15 0 -5.42101e-14 -1.95198e-14 0 0 0 0)
(5.42101e-14 -7.49417e-15 0 0 -1.36657e-14 0 0 0 0)
(0 4.04923e-15 0 0 3.85819e-16 0 0 0 0)
(5.96311e-13 -1.84935e-12 0 1.0571e-12 1.51709e-12 0 0 0 0)
(-5.42101e-13 2.13456e-12 0 -5.42101e-14 -3.01363e-13 0 0 0 0)
(5.42101e-14 -3.5035e-13 0 1.6263e-13 9.58746e-14 0 0 0 0)
(-1.0842e-13 1.02224e-13 0 -2.71051e-14 1.39988e-14 0 0 0 0)
(-8.13152e-14 -1.98161e-14 0 1.35525e-13 3.7871e-14 0 0 0 0)
(0 -1.66294e-14 0 8.13152e-14 8.24786e-15 0 0 0 0)
(2.71051e-14 -1.9641e-14 0 8.13152e-14 -1.04138e-14 0 0 0 0)
(5.42101e-14 -1.74186e-16 0 8.13152e-14 -1.27937e-14 0 0 0 0)
(0 7.36518e-15 0 5.42101e-14 -1.8453e-15 0 0 0 0)
(0 3.99577e-16 0 5.42101e-14 -4.25347e-15 0 0 0 0)
(0 -8.47371e-15 0 8.13152e-14 -2.58259e-15 0 0 0 0)
(0 -2.51804e-15 0 8.13152e-14 -4.45188e-15 0 0 0 0)
(-5.42101e-14 9.33864e-15 0 5.42101e-14 3.00264e-15 0 0 0 0)
(0 1.23593e-14 0 5.42101e-14 -5.14455e-15 0 0 0 0)
(0 1.0056e-14 0 0 -1.59771e-14 0 0 0 0)
(5.42101e-14 -2.13997e-15 0 5.42101e-14 -1.96453e-14 0 0 0 0)
(2.71051e-14 -1.13027e-14 0 8.13152e-14 -1.12684e-14 0 0 0 0)
(2.71051e-14 -5.82709e-15 0 5.42101e-14 4.59809e-19 0 0 0 0)
(-2.71051e-14 4.06475e-15 0 2.71051e-14 5.1875e-15 0 0 0 0)
(-2.71051e-14 5.86029e-15 0 0 4.16552e-15 0 0 0 0)
(-8.13152e-14 1.4518e-12 0 -5.14996e-13 1.23454e-12 0 0 0 0)
(1.35525e-13 -1.66704e-12 0 -5.42101e-14 -1.35908e-13 0 0 0 0)
(-8.13152e-14 3.29854e-13 0 -5.42101e-14 5.33913e-14 0 0 0 0)
(5.42101e-14 -7.13753e-14 0 5.42101e-14 -2.63862e-14 0 0 0 0)
(5.42101e-14 4.56518e-15 0 5.42101e-14 -2.49834e-14 0 0 0 0)
(-2.71051e-14 -4.19604e-14 0 1.35525e-13 -4.36703e-15 0 0 0 0)
(-2.71051e-14 -2.94494e-14 0 1.35525e-13 1.78019e-14 0 0 0 0)
(-2.71051e-14 -3.09203e-15 0 2.71051e-14 2.53766e-14 0 0 0 0)
(0 6.6031e-15 0 5.42101e-14 1.15687e-14 0 0 0 0)
(0 3.90707e-15 0 2.71051e-14 7.30542e-15 0 0 0 0)
(2.71051e-14 2.06181e-15 0 2.71051e-14 6.40179e-15 0 0 0 0)
(0 7.97691e-15 0 0 2.01786e-14 0 0 0 0)
(0 9.40298e-15 0 0 7.38762e-15 0 0 0 0)
(0 -3.80533e-15 0 5.42101e-14 7.21697e-15 0 0 0 0)
(0 -7.02226e-15 0 5.42101e-14 -2.56071e-15 0 0 0 0)
(-2.71051e-14 -4.91812e-16 0 2.71051e-14 -4.24582e-16 0 0 0 0)
(-2.71051e-14 8.05986e-15 0 -2.71051e-14 2.54545e-15 0 0 0 0)
(0 8.63402e-15 0 0 1.24139e-14 0 0 0 0)
(0 -3.32911e-15 0 -2.71051e-14 5.30924e-15 0 0 0 0)
(0 -5.30378e-15 0 0 -4.79175e-16 0 0 0 0)
(2.71051e-14 -7.50721e-13 0 8.13152e-14 -2.39759e-12 0 0 0 0)
(-1.35525e-13 9.53408e-13 0 -8.13152e-14 4.30943e-13 0 0 0 0)
(1.35525e-13 -2.40827e-13 0 2.71051e-14 -1.49977e-13 0 0 0 0)
(2.71051e-14 2.3849e-14 0 0 -2.78794e-14 0 0 0 0)
(5.42101e-14 2.20306e-15 0 -5.42101e-14 -6.55144e-14 0 0 0 0)
(5.42101e-14 2.6156e-14 0 -8.13152e-14 -2.37066e-14 0 0 0 0)
(-2.71051e-14 1.01027e-14 0 -5.42101e-14 1.27219e-14 0 0 0 0)
(-5.42101e-14 -6.40741e-15 0 0 3.42946e-14 0 0 0 0)
(-2.71051e-14 -1.0706e-14 0 2.71051e-14 3.51835e-14 0 0 0 0)
(-2.71051e-14 -4.76736e-15 0 2.71051e-14 3.17341e-14 0 0 0 0)
(-2.71051e-14 4.39948e-15 0 -2.71051e-14 2.72634e-14 0 0 0 0)
(-2.71051e-14 -1.53221e-15 0 0 2.54421e-14 0 0 0 0)
(0 -3.62299e-15 0 -5.42101e-14 -9.72864e-15 0 0 0 0)
(2.71051e-14 2.41094e-15 0 -5.42101e-14 -1.51585e-14 0 0 0 0)
(0 2.41444e-15 0 -2.71051e-14 2.54807e-15 0 0 0 0)
(0 2.96619e-15 0 -2.71051e-14 6.53069e-15 0 0 0 0)
(-2.71051e-14 1.53571e-15 0 -5.42101e-14 5.50355e-15 0 0 0 0)
(0 -3.0633e-15 0 -5.42101e-14 7.53028e-16 0 0 0 0)
(0 -8.8283e-15 0 0 -9.80153e-15 0 0 0 0)
(0 1.03023e-15 0 0 -5.69289e-15 0 0 0 0)
(0 -5.1484e-13 0 -8.13152e-14 2.76709e-12 0 0 0 0)
(5.42101e-14 5.80571e-13 0 1.35525e-13 -6.06503e-13 0 0 0 0)
(0 -1.28968e-13 0 0 1.23682e-13 0 0 0 0)
(-5.42101e-14 1.30871e-14 0 -5.42101e-14 -2.08814e-14 0 0 0 0)
(0 8.73803e-15 0 -5.42101e-14 2.11274e-14 0 0 0 0)
(0 3.62759e-14 0 -1.0842e-13 7.42961e-15 0 0 0 0)
(2.71051e-14 2.85518e-14 0 -1.35525e-13 -1.77028e-14 0 0 0 0)
(2.71051e-14 1.93695e-14 0 -1.0842e-13 -2.1499e-14 0 0 0 0)
(0 4.04262e-15 0 -1.35525e-13 -6.38079e-15 0 0 0 0)
(0 -4.01306e-15 0 -2.71051e-14 8.47037e-15 0 0 0 0)
(-2.71051e-14 -4.23022e-15 0 -2.71051e-14 1.74256e-14 0 0 0 0)
(0 -2.90151e-14 0 0 1.74401e-14 0 0 0 0)
(-2.71051e-14 -3.11977e-14 0 8.13152e-14 1.27406e-14 0 0 0 0)
(0 8.47138e-15 0 0 -2.05393e-15 0 0 0 0)
(0 1.4667e-14 0 -2.71051e-14 5.86391e-15 0 0 0 0)
(-5.42101e-14 2.46366e-15 0 0 1.12416e-15 0 0 0 0)
(0 2.2822e-15 0 5.42101e-14 -6.18477e-15 0 0 0 0)
(0 -6.67106e-15 0 5.42101e-14 -1.12213e-14 0 0 0 0)
(5.42101e-14 -9.77503e-15 0 0 -5.47037e-15 0 0 0 0)
(0 1.01906e-14 0 0 1.59465e-15 0 0 0 0)
(2.71051e-14 1.40986e-12 0 3.79471e-13 4.88633e-13 0 0 0 0)
(2.71051e-14 -1.68999e-12 0 -1.89735e-13 -9.38307e-14 0 0 0 0)
(-2.71051e-14 3.44794e-13 0 -5.42101e-14 5.61022e-14 0 0 0 0)
(-2.71051e-14 -7.8706e-14 0 -8.13152e-14 2.9443e-14 0 0 0 0)
(-5.42101e-14 3.0514e-14 0 -1.35525e-13 4.72517e-14 0 0 0 0)
(-2.71051e-14 -1.26742e-14 0 -2.71051e-14 2.27117e-14 0 0 0 0)
(-5.42101e-14 -1.88259e-14 0 0 6.57517e-15 0 0 0 0)
(0 4.91464e-15 0 -8.13152e-14 -1.06482e-14 0 0 0 0)
(8.13152e-14 1.92633e-14 0 -8.13152e-14 -2.20806e-14 0 0 0 0)
(5.42101e-14 1.9039e-14 0 -1.0842e-13 -2.48074e-14 0 0 0 0)
(0 1.33692e-14 0 -8.13152e-14 -2.19267e-14 0 0 0 0)
(5.42101e-14 -6.21718e-15 0 -1.0842e-13 -2.15977e-14 0 0 0 0)
(0 -2.3117e-14 0 -8.13152e-14 3.38402e-15 0 0 0 0)
(-5.42101e-14 -4.46574e-15 0 -5.42101e-14 2.43242e-15 0 0 0 0)
(0 5.59253e-15 0 -5.42101e-14 -1.25106e-14 0 0 0 0)
(2.71051e-14 -9.08248e-15 0 0 -1.22181e-14 0 0 0 0)
(0 -1.08097e-14 0 0 -1.27842e-14 0 0 0 0)
(0 -2.3489e-15 0 0 -1.55356e-14 0 0 0 0)
(0 3.98764e-15 0 0 3.58314e-16 0 0 0 0)
(-2.71051e-14 4.90595e-15 0 2.71051e-14 7.28052e-15 0 0 0 0)
(2.1684e-13 -1.20038e-13 0 1.35525e-13 -3.79523e-12 0 0 0 0)
(-4.06576e-13 1.4804e-13 0 -5.42101e-14 8.24632e-13 0 0 0 0)
(1.0842e-13 -5.69465e-15 0 2.71051e-14 -1.70034e-13 0 0 0 0)
(-5.42101e-14 4.23665e-15 0 2.71051e-14 5.8819e-14 0 0 0 0)
(-5.42101e-14 2.00672e-15 0 8.13152e-14 -2.86571e-15 0 0 0 0)
(1.0842e-13 -4.40062e-15 0 2.71051e-14 -1.82781e-14 0 0 0 0)
(0 -4.80801e-15 0 8.13152e-14 1.30527e-14 0 0 0 0)
(-5.42101e-14 -9.2863e-15 0 8.13152e-14 2.17552e-14 0 0 0 0)
(-5.42101e-14 -1.01166e-14 0 8.13152e-14 9.16977e-15 0 0 0 0)
(0 -3.85911e-15 0 2.71051e-14 -5.49568e-15 0 0 0 0)
(0 -1.02047e-15 0 2.71051e-14 -1.74229e-14 0 0 0 0)
(5.42101e-14 -3.70438e-15 0 2.71051e-14 -4.31791e-14 0 0 0 0)
(5.42101e-14 -7.16759e-15 0 0 -4.29603e-14 0 0 0 0)
(2.71051e-14 -7.42322e-15 0 5.42101e-14 -2.0846e-14 0 0 0 0)
(0 1.64017e-17 0 5.42101e-14 -1.64975e-14 0 0 0 0)
(5.42101e-14 2.19001e-15 0 2.71051e-14 -1.89123e-14 0 0 0 0)
(0 -1.03529e-15 0 2.71051e-14 -5.57617e-15 0 0 0 0)
(0 6.47149e-15 0 0 1.49713e-15 0 0 0 0)
(0 1.30411e-14 0 2.71051e-14 4.4195e-15 0 0 0 0)
(0 2.55181e-15 0 -2.71051e-14 -4.30866e-15 0 0 0 0)
(1.0842e-13 -1.56073e-12 0 -2.1684e-13 1.76166e-12 0 0 0 0)
(-8.13152e-14 1.9352e-12 0 1.89735e-13 -2.94252e-13 0 0 0 0)
(2.71051e-14 -4.21019e-13 0 5.42101e-14 6.06105e-14 0 0 0 0)
(0 8.84626e-14 0 1.0842e-13 -2.1113e-14 0 0 0 0)
(0 -4.6583e-14 0 1.35525e-13 -9.8743e-15 0 0 0 0)
(0 3.24423e-15 0 1.0842e-13 -4.31629e-15 0 0 0 0)
(0 2.12073e-14 0 2.71051e-14 4.97351e-15 0 0 0 0)
(0 1.03171e-15 0 1.0842e-13 5.82581e-15 0 0 0 0)
(5.42101e-14 -7.9875e-15 0 8.13152e-14 8.64517e-15 0 0 0 0)
(-2.71051e-14 -7.55372e-15 0 8.13152e-14 1.7611e-14 0 0 0 0)
(-2.71051e-14 -2.43142e-14 0 5.42101e-14 1.15033e-14 0 0 0 0)
(0 -3.17546e-14 0 1.0842e-13 3.50836e-15 0 0 0 0)
(-2.71051e-14 -7.8389e-16 0 8.13152e-14 2.08152e-15 0 0 0 0)
(2.71051e-14 2.19971e-14 0 0 4.59508e-15 0 0 0 0)
(0 7.52626e-15 0 -5.42101e-14 -2.89044e-16 0 0 0 0)
(2.71051e-14 1.83887e-15 0 -2.71051e-14 -8.29225e-15 0 0 0 0)
(-2.71051e-14 9.59963e-15 0 -2.71051e-14 -7.12707e-16 0 0 0 0)
(0 7.64677e-15 0 0 7.96112e-15 0 0 0 0)
(-2.71051e-14 -1.81814e-15 0 -2.71051e-14 5.39023e-16 0 0 0 0)
(-2.71051e-14 4.7951e-15 0 0 -9.6347e-15 0 0 0 0)
(1.89735e-13 1.34737e-12 0 -7.04731e-13 1.9434e-12 0 0 0 0)
(-1.35525e-13 -1.55301e-12 0 1.6263e-13 -4.01037e-13 0 0 0 0)
(0 2.67444e-13 0 -1.35525e-13 1.06883e-13 0 0 0 0)
(0 -6.62482e-14 0 -5.42101e-14 -2.73181e-14 0 0 0 0)
(2.71051e-14 1.88034e-14 0 -5.42101e-14 4.80226e-15 0 0 0 0)
(-2.71051e-14 1.04472e-14 0 -5.42101e-14 2.87785e-14 0 0 0 0)
(-2.71051e-14 5.33408e-15 0 -1.0842e-13 1.46236e-14 0 0 0 0)
(-2.71051e-14 -5.61464e-15 0 -5.42101e-14 3.87988e-15 0 0 0 0)
(-5.42101e-14 1.66854e-15 0 -2.71051e-14 -1.07888e-15 0 0 0 0)
(0 -1.00101e-15 0 -2.71051e-14 -1.06743e-14 0 0 0 0)
(0 -1.51231e-14 0 -5.42101e-14 -1.52612e-14 0 0 0 0)
(8.13152e-14 -1.31261e-14 0 0 1.24093e-14 0 0 0 0)
(-8.13152e-14 -6.08087e-15 0 2.71051e-14 3.62303e-14 0 0 0 0)
(-2.71051e-14 -9.79379e-15 0 0 1.00446e-14 0 0 0 0)
(0 -1.28709e-14 0 5.42101e-14 -1.98714e-14 0 0 0 0)
(0 1.76634e-15 0 5.42101e-14 -7.47398e-15 0 0 0 0)
(0 1.52181e-14 0 0 -3.7456e-16 0 0 0 0)
(2.71051e-14 7.72322e-15 0 0 -1.76944e-15 0 0 0 0)
(5.42101e-14 -4.55471e-15 0 0 -7.9862e-15 0 0 0 0)
(0 1.16475e-14 0 0 3.53571e-15 0 0 0 0)
(-4.33681e-13 -1.83681e-14 0 3.25261e-13 -2.21923e-12 0 0 0 0)
(4.87891e-13 9.86783e-14 0 -1.6263e-13 4.5172e-13 0 0 0 0)
(-1.35525e-13 -4.72998e-14 0 -8.13152e-14 -8.42099e-14 0 0 0 0)
(2.71051e-14 -1.36182e-14 0 -8.13152e-14 3.46977e-14 0 0 0 0)
(-2.71051e-14 9.51357e-15 0 -1.0842e-13 -1.85987e-15 0 0 0 0)
(0 1.30656e-14 0 -8.13152e-14 -1.00357e-14 0 0 0 0)
(2.71051e-14 -3.69128e-15 0 0 -2.05357e-14 0 0 0 0)
(5.42101e-14 -1.46708e-14 0 2.71051e-14 -1.33556e-14 0 0 0 0)
(2.71051e-14 -2.25417e-14 0 2.71051e-14 -1.04433e-14 0 0 0 0)
(0 -2.1736e-14 0 5.42101e-14 -1.73671e-14 0 0 0 0)
(2.71051e-14 -1.23062e-15 0 1.0842e-13 -1.6162e-14 0 0 0 0)
(0 1.97369e-14 0 0 -7.24123e-15 0 0 0 0)
(0 -3.14858e-15 0 -2.71051e-14 -2.88112e-15 0 0 0 0)
(2.71051e-14 -3.41046e-14 0 5.42101e-14 -2.74894e-15 0 0 0 0)
(5.42101e-14 -9.99235e-15 0 5.42101e-14 3.84462e-15 0 0 0 0)
(0 2.13357e-14 0 0 1.41135e-14 0 0 0 0)
(-5.42101e-14 1.53042e-14 0 0 1.37617e-14 0 0 0 0)
(-2.71051e-14 3.51321e-17 0 5.42101e-14 1.03996e-14 0 0 0 0)
(-2.71051e-14 3.487e-15 0 0 1.29443e-14 0 0 0 0)
(-2.71051e-14 9.24559e-15 0 0 1.1653e-14 0 0 0 0)
(3.52366e-13 -4.2014e-13 0 -5.42101e-13 4.58465e-13 0 0 0 0)
(-5.42101e-13 5.82011e-13 0 -5.42101e-14 -1.49453e-13 0 0 0 0)
(1.35525e-13 -1.49578e-13 0 0 9.42341e-16 0 0 0 0)
(-2.71051e-14 1.61018e-14 0 0 -3.91871e-15 0 0 0 0)
(2.71051e-14 -2.593e-14 0 0 -7.10753e-15 0 0 0 0)
(5.42101e-14 -8.22862e-15 0 0 -3.53831e-14 0 0 0 0)
(5.42101e-14 2.01421e-15 0 0 -4.00406e-14 0 0 0 0)
(0 4.47776e-15 0 -1.0842e-13 -3.02708e-14 0 0 0 0)
(2.71051e-14 -2.34297e-15 0 -8.13152e-14 -1.33201e-14 0 0 0 0)
(0 -6.71969e-15 0 -5.42101e-14 -1.31467e-15 0 0 0 0)
(-2.71051e-14 -4.99721e-15 0 -1.0842e-13 5.88585e-15 0 0 0 0)
(-2.71051e-14 1.54715e-16 0 -5.42101e-14 -1.50151e-16 0 0 0 0)
(2.71051e-14 -1.58858e-15 0 -2.71051e-14 -1.06003e-14 0 0 0 0)
(0 -3.06805e-15 0 -5.42101e-14 5.20427e-15 0 0 0 0)
(-5.42101e-14 3.99151e-15 0 -5.42101e-14 2.5703e-14 0 0 0 0)
(-5.42101e-14 1.16834e-14 0 -1.0842e-13 1.24391e-14 0 0 0 0)
(0 1.15041e-14 0 -8.13152e-14 -6.31111e-15 0 0 0 0)
(8.13152e-14 6.90584e-15 0 -5.42101e-14 -6.99488e-15 0 0 0 0)
(-2.71051e-14 -3.30126e-15 0 0 9.25147e-15 0 0 0 0)
(0 -1.29499e-14 0 0 8.22282e-16 0 0 0 0)
(-9.75782e-13 2.90644e-13 0 1.35525e-13 2.46286e-13 0 0 0 0)
(9.75782e-13 -3.58844e-13 0 1.35525e-13 -9.1512e-14 0 0 0 0)
(-1.89735e-13 9.82343e-14 0 8.13152e-14 1.62263e-15 0 0 0 0)
(1.0842e-13 -2.1668e-14 0 8.13152e-14 -3.47691e-15 0 0 0 0)
(-5.42101e-14 -2.19508e-14 0 2.71051e-14 1.02127e-14 0 0 0 0)
(0 -1.98675e-14 0 2.71051e-14 1.09287e-14 0 0 0 0)
(0 1.42094e-15 0 0 -4.9882e-16 0 0 0 0)
(-5.42101e-14 1.20497e-14 0 2.71051e-14 -5.34289e-15 0 0 0 0)
(0 6.41448e-15 0 -2.71051e-14 -1.06035e-14 0 0 0 0)
(5.42101e-14 -2.53005e-15 0 -5.42101e-14 -2.31333e-14 0 0 0 0)
(5.42101e-14 -6.6093e-17 0 0 -2.37709e-14 0 0 0 0)
(2.71051e-14 3.25071e-15 0 -5.42101e-14 -1.56548e-14 0 0 0 0)
(0 2.20584e-15 0 5.42101e-14 -7.38045e-15 0 0 0 0)
(-2.71051e-14 2.19874e-15 0 0 -5.18084e-15 0 0 0 0)
(2.71051e-14 -2.75755e-15 0 0 2.87866e-17 0 0 0 0)
(0 -1.06784e-14 0 5.42101e-14 5.72089e-16 0 0 0 0)
(0 -4.12977e-15 0 8.13152e-14 -8.87648e-15 0 0 0 0)
(0 1.55977e-14 0 -5.42101e-14 -1.17732e-14 0 0 0 0)
(5.42101e-14 1.13042e-14 0 0 -1.34869e-14 0 0 0 0)
(0 -8.28158e-16 0 0 -5.84985e-15 0 0 0 0)
(5.42101e-13 -2.65366e-13 0 1.02999e-12 1.2198e-12 0 0 0 0)
(-4.87891e-13 3.37348e-13 0 -1.6263e-13 -1.88564e-13 0 0 0 0)
(5.42101e-14 -6.1543e-14 0 1.0842e-13 3.98768e-14 0 0 0 0)
(-2.71051e-14 2.46919e-14 0 0 -1.6067e-14 0 0 0 0)
(0 -1.15243e-14 0 8.13152e-14 4.31777e-15 0 0 0 0)
(-2.71051e-14 -1.89401e-14 0 1.0842e-13 1.12867e-14 0 0 0 0)
(2.71051e-14 -1.42574e-14 0 1.0842e-13 2.3262e-15 0 0 0 0)
(-2.71051e-14 -5.62691e-15 0 1.0842e-13 1.23337e-15 0 0 0 0)
(0 -2.01334e-14 0 1.35525e-13 -2.92861e-15 0 0 0 0)
(0 -1.98871e-14 0 1.0842e-13 -1.90968e-15 0 0 0 0)
(0 2.48125e-15 0 1.0842e-13 -1.55879e-15 0 0 0 0)
(0 1.65452e-14 0 1.0842e-13 -1.72517e-15 0 0 0 0)
(0 8.88542e-15 0 0 -2.89122e-15 0 0 0 0)
(0 4.34118e-15 0 5.42101e-14 -8.00256e-16 0 0 0 0)
(0 9.74444e-15 0 0 -3.37664e-15 0 0 0 0)
(0 2.77816e-15 0 0 2.99865e-15 0 0 0 0)
(0 -8.41135e-16 0 0 1.50343e-14 0 0 0 0)
(-5.42101e-14 2.29544e-15 0 5.42101e-14 1.71367e-14 0 0 0 0)
(0 2.62209e-15 0 0 2.43111e-15 0 0 0 0)
(0 6.38687e-15 0 0 -3.26654e-16 0 0 0 0)
(-8.13152e-14 1.32188e-12 0 -1.43657e-12 -2.01429e-12 0 0 0 0)
(2.71051e-14 -1.53877e-12 0 2.43945e-13 3.68967e-13 0 0 0 0)
(-2.71051e-14 2.70732e-13 0 -1.35525e-13 -7.6206e-14 0 0 0 0)
(2.71051e-14 -5.7227e-14 0 2.71051e-14 7.82389e-15 0 0 0 0)
(0 5.40302e-15 0 -2.71051e-14 -1.48118e-14 0 0 0 0)
(5.42101e-14 -2.18591e-14 0 -5.42101e-14 -1.79592e-14 0 0 0 0)
(2.71051e-14 -8.63244e-15 0 -2.71051e-14 -1.50828e-14 0 0 0 0)
(0 6.79487e-15 0 -2.71051e-14 -2.87432e-14 0 0 0 0)
(2.71051e-14 3.27143e-15 0 -2.71051e-14 -2.88154e-14 0 0 0 0)
(0 -1.16022e-15 0 0 3.45253e-15 0 0 0 0)
(-2.71051e-14 1.18415e-16 0 0 2.13042e-14 0 0 0 0)
(-2.71051e-14 1.91827e-15 0 0 2.50085e-14 0 0 0 0)
(0 3.13076e-15 0 0 1.1008e-14 0 0 0 0)
(-5.42101e-14 1.71333e-15 0 -2.71051e-14 1.38768e-14 0 0 0 0)
(0 1.04136e-15 0 0 8.92131e-15 0 0 0 0)
(0 7.73249e-15 0 0 1.17682e-14 0 0 0 0)
(0 1.00083e-14 0 0 1.55241e-14 0 0 0 0)
(5.42101e-14 2.99456e-15 0 0 8.90988e-15 0 0 0 0)
(2.71051e-14 -6.15924e-15 0 -5.42101e-14 -1.99746e-15 0 0 0 0)
(-2.71051e-14 -2.93262e-15 0 0 -3.4424e-15 0 0 0 0)
(-6.23416e-13 -1.91068e-12 0 1.0842e-12 -1.4332e-13 0 0 0 0)
(7.86047e-13 2.27543e-12 0 -1.0842e-13 -4.3511e-14 0 0 0 0)
(-1.35525e-13 -4.22686e-13 0 1.6263e-13 1.13116e-14 0 0 0 0)
(2.71051e-14 8.60861e-14 0 2.71051e-14 -3.10205e-15 0 0 0 0)
(0 -3.73074e-14 0 5.42101e-14 -1.86591e-15 0 0 0 0)
(-2.71051e-14 -1.92112e-14 0 5.42101e-14 9.52598e-17 0 0 0 0)
(0 -2.50414e-14 0 2.71051e-14 4.02715e-15 0 0 0 0)
(-2.71051e-14 -1.93595e-14 0 2.71051e-14 -1.06153e-14 0 0 0 0)
(2.71051e-14 1.20623e-14 0 -2.71051e-14 -7.77969e-15 0 0 0 0)
(2.71051e-14 3.02326e-14 0 -5.42101e-14 8.24462e-15 0 0 0 0)
(0 2.40372e-14 0 -1.0842e-13 1.39739e-14 0 0 0 0)
(0 6.24889e-15 0 -5.42101e-14 1.75494e-14 0 0 0 0)
(0 -2.24624e-15 0 -5.42101e-14 4.68988e-15 0 0 0 0)
(0 2.25454e-15 0 -2.71051e-14 1.78921e-15 0 0 0 0)
(0 7.63584e-15 0 -5.42101e-14 1.03448e-14 0 0 0 0)
(-2.71051e-14 9.38094e-15 0 -5.42101e-14 1.10443e-14 0 0 0 0)
(0 -3.69947e-15 0 -5.42101e-14 5.22983e-15 0 0 0 0)
(-2.71051e-14 -1.52261e-14 0 0 -3.67875e-15 0 0 0 0)
(0 -9.73019e-15 0 5.42101e-14 -1.40998e-14 0 0 0 0)
(0 1.18267e-14 0 2.71051e-14 -5.71444e-15 0 0 0 0)
(8.94467e-13 1.13505e-12 0 3.25261e-13 3.96246e-12 0 0 0 0)
(-8.94467e-13 -1.38414e-12 0 -1.0842e-13 -7.38812e-13 0 0 0 0)
(1.0842e-13 3.11141e-13 0 -2.71051e-14 1.58409e-13 0 0 0 0)
(-5.42101e-14 -7.04046e-14 0 0 -3.70011e-14 0 0 0 0)
(2.71051e-14 8.60032e-15 0 0 2.51284e-15 0 0 0 0)
(0 -1.5966e-14 0 0 8.93522e-15 0 0 0 0)
(0 -1.9343e-14 0 0 2.0874e-14 0 0 0 0)
(-2.71051e-14 -5.01196e-15 0 -2.71051e-14 2.99957e-14 0 0 0 0)
(-1.0842e-13 2.21313e-14 0 0 3.77585e-14 0 0 0 0)
(-2.71051e-14 2.05934e-14 0 -5.42101e-14 2.77832e-14 0 0 0 0)
(0 9.42324e-15 0 -2.71051e-14 1.64639e-14 0 0 0 0)
(0 -7.36579e-15 0 -5.42101e-14 -3.02707e-15 0 0 0 0)
(0 -1.26295e-14 0 -5.42101e-14 -2.52235e-16 0 0 0 0)
(0 7.36825e-15 0 -5.42101e-14 2.98391e-17 0 0 0 0)
(-5.42101e-14 1.02964e-14 0 -2.71051e-14 1.9184e-15 0 0 0 0)
(5.42101e-14 2.61751e-15 0 0 -1.60446e-14 0 0 0 0)
(2.71051e-14 -4.71472e-15 0 0 -1.94893e-14 0 0 0 0)
(8.13152e-14 -1.6335e-14 0 2.71051e-14 -1.07024e-14 0 0 0 0)
(0 -8.19493e-15 0 0 4.23615e-15 0 0 0 0)
(-2.71051e-14 1.68816e-14 0 0 7.05616e-15 0 0 0 0)
(-4.33681e-13 1.31297e-12 0 -5.96311e-13 -3.8587e-12 0 0 0 0)
(4.60786e-13 -1.52863e-12 0 0 7.84977e-13 0 0 0 0)
(-8.13152e-14 2.79124e-13 0 -1.0842e-13 -1.77811e-13 0 0 0 0)
(1.0842e-13 -6.98099e-14 0 -5.42101e-14 3.94553e-14 0 0 0 0)
(-5.42101e-14 8.62896e-15 0 -1.0842e-13 6.00271e-15 0 0 0 0)
(0 -8.50039e-16 0 -1.0842e-13 1.53708e-14 0 0 0 0)
(0 -3.98094e-15 0 -5.42101e-14 1.84163e-14 0 0 0 0)
(-5.42101e-14 -2.47504e-15 0 -1.0842e-13 1.89828e-14 0 0 0 0)
(0 9.84986e-15 0 -5.42101e-14 -8.1224e-16 0 0 0 0)
(5.42101e-14 8.93801e-15 0 0 -1.813e-14 0 0 0 0)
(-5.42101e-14 -6.77308e-15 0 8.13152e-14 -1.29634e-14 0 0 0 0)
(5.42101e-14 -1.04672e-14 0 5.42101e-14 -2.69578e-14 0 0 0 0)
(0 8.10667e-16 0 8.13152e-14 2.28973e-15 0 0 0 0)
(0 4.42517e-15 0 5.42101e-14 6.65898e-15 0 0 0 0)
(0 -8.43857e-15 0 2.71051e-14 -1.15447e-14 0 0 0 0)
(2.71051e-14 -1.20267e-14 0 1.0842e-13 -1.79579e-14 0 0 0 0)
(0 1.64267e-15 0 1.0842e-13 -1.09954e-14 0 0 0 0)
(0 8.49928e-15 0 0 -2.90741e-15 0 0 0 0)
(-2.71051e-14 8.0284e-15 0 2.71051e-14 1.04272e-14 0 0 0 0)
(0 5.34417e-16 0 0 1.12428e-14 0 0 0 0)
(2.98156e-13 -1.93867e-12 0 7.58942e-13 -1.53294e-12 0 0 0 0)
(-4.33681e-13 2.29675e-12 0 -8.13152e-14 2.32171e-13 0 0 0 0)
(8.13152e-14 -4.34381e-13 0 1.0842e-13 -7.54414e-14 0 0 0 0)
(-2.71051e-14 1.13409e-13 0 0 3.11426e-16 0 0 0 0)
(0 -1.54842e-14 0 8.13152e-14 2.1452e-16 0 0 0 0)
(0 -3.55241e-15 0 5.42101e-14 -1.02626e-15 0 0 0 0)
(0 -1.5731e-14 0 5.42101e-14 -9.08134e-15 0 0 0 0)
(2.71051e-14 -2.42405e-14 0 1.35525e-13 -5.16412e-15 0 0 0 0)
(-2.71051e-14 -1.49814e-14 0 1.0842e-13 -8.87295e-15 0 0 0 0)
(2.71051e-14 8.44228e-15 0 5.42101e-14 -1.59988e-14 0 0 0 0)
(5.42101e-14 5.9544e-16 0 5.42101e-14 -1.4681e-14 0 0 0 0)
(2.71051e-14 7.8873e-15 0 0 -8.49676e-15 0 0 0 0)
(0 2.09873e-14 0 0 2.07217e-15 0 0 0 0)
(-2.71051e-14 -6.46615e-15 0 0 1.29537e-15 0 0 0 0)
(2.71051e-14 -1.43204e-14 0 5.42101e-14 -1.07087e-14 0 0 0 0)
(2.71051e-14 3.16681e-15 0 -2.71051e-14 7.40923e-16 0 0 0 0)
(-2.71051e-14 1.03358e-14 0 -5.42101e-14 1.22627e-14 0 0 0 0)
(0 5.08757e-15 0 -2.71051e-14 7.28091e-15 0 0 0 0)
(0 5.95525e-15 0 -2.71051e-14 8.30821e-16 0 0 0 0)
(-2.71051e-14 -4.78839e-15 0 -2.71051e-14 1.87998e-15 0 0 0 0)
(2.71051e-13 1.21994e-14 0 -6.77626e-13 2.33244e-12 0 0 0 0)
(-1.89735e-13 -7.11302e-14 0 1.35525e-13 -4.05963e-13 0 0 0 0)
(2.71051e-14 4.72649e-14 0 -5.42101e-14 1.06816e-13 0 0 0 0)
(0 5.84596e-15 0 0 -1.88474e-14 0 0 0 0)
(0 7.29127e-15 0 -2.71051e-14 -1.24396e-14 0 0 0 0)
(0 -1.01459e-14 0 0 -1.06544e-14 0 0 0 0)
(2.71051e-14 -8.1188e-15 0 -5.42101e-14 1.25873e-15 0 0 0 0)
(0 -2.26666e-15 0 -5.42101e-14 1.31953e-14 0 0 0 0)
(-5.42101e-14 -9.84779e-16 0 -5.42101e-14 2.77659e-14 0 0 0 0)
(0 3.12999e-15 0 0 2.91615e-14 0 0 0 0)
(-2.71051e-14 7.28922e-16 0 -5.42101e-14 1.61936e-14 0 0 0 0)
(-2.71051e-14 6.28589e-15 0 0 2.78372e-14 0 0 0 0)
(-2.71051e-14 1.06028e-14 0 -2.71051e-14 2.02043e-15 0 0 0 0)
(0 -8.35572e-15 0 0 -3.7529e-15 0 0 0 0)
(0 -8.99301e-15 0 0 1.68423e-14 0 0 0 0)
(-5.42101e-14 1.09447e-14 0 -2.71051e-14 1.95606e-14 0 0 0 0)
(5.42101e-14 8.18266e-15 0 0 2.73079e-15 0 0 0 0)
(0 -2.93258e-15 0 0 1.04213e-15 0 0 0 0)
(0 2.62747e-15 0 0 5.75805e-16 0 0 0 0)
(0 -2.17639e-15 0 0 -7.54059e-15 0 0 0 0)
)
;

boundaryField
{
    movingWall
    {
        type            extrapolatedCalculated;
        value           nonuniform List<tensor> 
20
(
(2.71051e-13 1.21994e-14 0 -1.06581e-12 -2.70965e-13 0 0 0 0)
(-1.89735e-13 -7.11302e-14 0 -4.44089e-14 2.22167e-13 0 0 0 0)
(2.71051e-14 4.72649e-14 0 -2.66454e-13 1.35559e-14 0 0 0 0)
(0 5.84596e-15 0 -1.77636e-13 3.31075e-14 0 0 0 0)
(0 7.29127e-15 0 -2.66454e-13 -9.82796e-15 0 0 0 0)
(0 -1.01459e-14 0 -2.22045e-13 3.94235e-15 0 0 0 0)
(2.71051e-14 -8.1188e-15 0 -2.66454e-13 3.07556e-14 0 0 0 0)
(0 -2.26666e-15 0 -3.10862e-13 3.64176e-14 0 0 0 0)
(-5.42101e-14 -9.84779e-16 0 -2.22045e-13 3.98222e-14 0 0 0 0)
(0 3.12999e-15 0 -1.77636e-13 4.03567e-14 0 0 0 0)
(-2.71051e-14 7.28922e-16 0 -1.33227e-13 2.73023e-14 0 0 0 0)
(-2.71051e-14 6.28589e-15 0 -4.44089e-14 3.7441e-14 0 0 0 0)
(-2.71051e-14 1.06028e-14 0 0 2.15871e-15 0 0 0 0)
(0 -8.35572e-15 0 0 -4.97019e-15 0 0 0 0)
(0 -8.99301e-15 0 0 3.55816e-14 0 0 0 0)
(-5.42101e-14 1.09447e-14 0 0 3.10019e-14 0 0 0 0)
(5.42101e-14 8.18266e-15 0 8.88178e-14 -8.19722e-15 0 0 0 0)
(0 -2.93258e-15 0 0 -1.72877e-15 0 0 0 0)
(0 2.62747e-15 0 0 3.53312e-15 0 0 0 0)
(0 -2.17639e-15 0 0 -1.22387e-14 0 0 0 0)
)
;
    }
    fixedWalls
    {
        type            extrapolatedCalculated;
        value           nonuniform List<tensor> 
60
(
(1.9984e-12 1.44782e-11 0 -6.23416e-13 3.87519e-12 0 0 0 0)
(-4.52971e-12 1.02257e-12 0 8.13152e-14 -5.84577e-12 0 0 0 0)
(2.4869e-12 -8.9049e-12 0 1.0571e-12 1.51709e-12 0 0 0 0)
(-4.44089e-13 7.09095e-12 0 -5.14996e-13 1.23454e-12 0 0 0 0)
(4.88498e-13 -3.96674e-12 0 8.13152e-14 -2.39759e-12 0 0 0 0)
(-8.88178e-14 -2.49939e-12 0 -8.13152e-14 2.76709e-12 0 0 0 0)
(0 7.1016e-12 0 3.79471e-13 4.88633e-13 0 0 0 0)
(1.5099e-12 -5.44854e-13 0 1.35525e-13 -3.79523e-12 0 0 0 0)
(5.32907e-13 -8.07931e-12 0 -2.1684e-13 1.76166e-12 0 0 0 0)
(6.66134e-13 6.5018e-12 0 -7.04731e-13 1.9434e-12 0 0 0 0)
(-2.30926e-12 -3.05698e-13 0 3.25261e-13 -2.21923e-12 0 0 0 0)
(1.9984e-12 -2.37514e-12 0 -5.42101e-13 4.58465e-13 0 0 0 0)
(-4.44089e-12 1.52816e-12 0 1.35525e-13 2.46286e-13 0 0 0 0)
(2.39808e-12 -1.38999e-12 0 1.02999e-12 1.2198e-12 0 0 0 0)
(-2.66454e-13 6.40736e-12 0 -1.43657e-12 -2.01429e-12 0 0 0 0)
(-3.28626e-12 -9.44713e-12 0 1.0842e-12 -1.4332e-13 0 0 0 0)
(4.08562e-12 5.83409e-12 0 3.25261e-13 3.96246e-12 0 0 0 0)
(-2.04281e-12 6.40272e-12 0 -5.96311e-13 -3.8587e-12 0 0 0 0)
(1.73195e-12 -9.60071e-12 0 7.58942e-13 -1.53294e-12 0 0 0 0)
(1.06581e-12 2.70965e-13 0 -6.77626e-13 2.33244e-12 0 0 0 0)
(0 9.08548e-15 0 0 -6.62707e-15 0 0 0 0)
(0 1.74228e-14 0 0 3.85819e-16 0 0 0 0)
(0 7.5422e-15 0 0 4.16552e-15 0 0 0 0)
(0 7.60732e-16 0 0 -4.79175e-16 0 0 0 0)
(-4.44089e-14 9.4589e-15 0 0 -5.69289e-15 0 0 0 0)
(0 2.35323e-14 0 0 1.59465e-15 0 0 0 0)
(-4.44089e-14 3.08032e-15 0 2.71051e-14 7.28052e-15 0 0 0 0)
(0 -5.58978e-15 0 -2.71051e-14 -4.30866e-15 0 0 0 0)
(0 2.03149e-14 0 0 -9.6347e-15 0 0 0 0)
(0 3.2949e-14 0 0 3.53571e-15 0 0 0 0)
(0 6.17211e-15 0 0 1.1653e-14 0 0 0 0)
(0 -1.36631e-14 0 0 8.22282e-16 0 0 0 0)
(0 2.88298e-15 0 0 -5.84985e-15 0 0 0 0)
(0 9.73633e-15 0 0 -3.26654e-16 0 0 0 0)
(-4.44089e-14 4.1896e-15 0 0 -3.4424e-15 0 0 0 0)
(0 2.35059e-14 0 2.71051e-14 -5.71444e-15 0 0 0 0)
(-4.44089e-14 2.70474e-14 0 0 7.05616e-15 0 0 0 0)
(0 -4.71873e-15 0 0 1.12428e-14 0 0 0 0)
(-4.44089e-14 -1.79237e-14 0 -2.71051e-14 1.87998e-15 0 0 0 0)
(0 -1.22387e-14 0 0 -7.54059e-15 0 0 0 0)
(5.14996e-13 2.98498e-12 0 1.9984e-12 1.44782e-11 0 0 0 0)
(-4.33681e-13 -3.4608e-12 0 4.44089e-14 -2.53825e-12 0 0 0 0)
(5.42101e-14 6.09983e-13 0 3.55271e-13 6.34969e-13 0 0 0 0)
(-2.71051e-14 -1.50565e-13 0 2.22045e-13 -9.83182e-14 0 0 0 0)
(-5.42101e-14 3.1436e-14 0 1.77636e-13 3.27109e-14 0 0 0 0)
(2.71051e-14 -2.62996e-15 0 1.33227e-13 2.74257e-14 0 0 0 0)
(-2.71051e-14 -5.31731e-15 0 1.77636e-13 2.2191e-14 0 0 0 0)
(0 -9.84799e-15 0 1.33227e-13 6.15644e-15 0 0 0 0)
(0 -3.36011e-15 0 8.88178e-14 -1.72009e-14 0 0 0 0)
(2.71051e-14 4.92985e-15 0 1.33227e-13 -7.28401e-15 0 0 0 0)
(2.71051e-14 5.73669e-15 0 2.66454e-13 2.51844e-15 0 0 0 0)
(-2.71051e-14 -8.53251e-17 0 1.77636e-13 1.56627e-14 0 0 0 0)
(2.71051e-14 -6.99528e-16 0 1.77636e-13 2.17714e-15 0 0 0 0)
(-2.71051e-14 -5.60084e-16 0 2.22045e-13 1.28646e-14 0 0 0 0)
(-2.71051e-14 -3.63737e-15 0 1.33227e-13 -6.3195e-17 0 0 0 0)
(0 5.61003e-15 0 4.44089e-14 -1.68486e-15 0 0 0 0)
(0 1.39908e-14 0 1.33227e-13 2.23769e-14 0 0 0 0)
(0 4.09672e-15 0 8.88178e-14 5.42781e-14 0 0 0 0)
(-5.42101e-14 -1.58409e-14 0 4.44089e-14 3.87638e-14 0 0 0 0)
(0 -7.41958e-15 0 0 -9.08548e-15 0 0 0 0)
)
;
    }
    frontAndBack
    {
        type            empty;
    }
}


// ************************************************************************* //
