/*--------------------------------*- C++ -*----------------------------------*\
| =========                 |                                                 |
| \\      /  F ield         | OpenFOAM: The Open Source CFD Toolbox           |
|  \\    /   O peration     | Version:  2506                                  |
|   \\  /    A nd           | Website:  www.openfoam.com                      |
|    \\/     M anipulation  |                                                 |
\*---------------------------------------------------------------------------*/
FoamFile
{
    version     2.0;
    format      ascii;
    arch        "LSB;label=32;scalar=64";
    class       volVectorField;
    location    "7.875";
    object      LambVectorField;
}
// * * * * * * * * * * * * * * * * * * * * * * * * * * * * * * * * * * * * * //

dimensions      [0 1 -2 0 0 0 0];

internalField   nonuniform List<vector> 
400
(
(-1.30607e-25 -3.60839e-12 0)
(-2.26489e-26 3.56922e-12 -0)
(-1.09738e-27 -6.91298e-13 0)
(-5.6995e-29 2.3188e-13 -0)
(-3.5417e-31 -4.33091e-15 0)
(1.80321e-31 2.62996e-15 0)
(2.94991e-31 5.31731e-15 0)
(5.68748e-31 3.6953e-14 0)
(-1.44493e-31 3.36011e-15 -0)
(-4.03811e-31 2.21752e-14 -0)
(3.05194e-31 4.84734e-14 0)
(3.34106e-33 8.53251e-17 0)
(1.51336e-31 2.78046e-14 0)
(1.76149e-30 5.47702e-14 0)
(-9.13918e-33 5.78475e-14 -0)
(2.36303e-32 -5.61003e-15 -0)
(-7.82675e-31 -1.39908e-14 0)
(-5.55905e-31 -4.09672e-15 0)
(1.53513e-30 1.58409e-14 0)
(-1.68526e-31 7.41958e-15 -0)
(-3.95622e-28 -1.54755e-13 0)
(-4.28088e-29 2.18712e-13 -0)
(-1.42402e-30 -1.4492e-14 0)
(6.97815e-31 -1.37334e-14 -0)
(3.24868e-30 -9.16313e-14 -0)
(-4.58788e-30 -8.76395e-14 0)
(-2.02606e-30 -7.29073e-14 0)
(2.21006e-30 -6.96546e-14 -0)
(4.64267e-30 -5.2273e-14 -0)
(4.39252e-30 -8.59595e-14 -0)
(4.68978e-30 -1.1068e-13 -0)
(1.61302e-30 -5.66018e-14 -0)
(1.68703e-30 -9.14108e-14 -0)
(-8.95552e-30 -1.23595e-13 0)
(-8.22239e-30 -6.16886e-14 0)
(-7.21636e-30 -4.90096e-14 0)
(-3.46463e-30 -4.26242e-14 0)
(-1.45588e-30 -4.63883e-14 0)
(2.2967e-32 7.49417e-15 0)
(1.76372e-31 -4.04923e-15 -0)
(-6.47041e-26 2.90645e-12 -0)
(-8.24887e-27 -2.18877e-12 0)
(-4.70242e-28 5.1298e-13 -0)
(-3.43024e-29 -1.29329e-13 0)
(1.63964e-29 1.55341e-13 0)
(6.56944e-30 9.79446e-14 0)
(-6.13238e-30 1.00956e-13 -0)
(-1.05396e-29 8.14893e-14 -0)
(-2.9271e-30 4.68449e-14 -0)
(-2.99643e-30 5.38105e-14 -0)
(-5.25167e-30 8.97889e-14 -0)
(-1.1772e-29 8.38332e-14 -0)
(-3.75438e-30 4.48715e-14 -0)
(-1.96848e-30 4.18508e-14 -0)
(-4.01467e-31 -1.0056e-14 0)
(3.01611e-30 5.63501e-14 0)
(1.7156e-30 9.26179e-14 0)
(-3.5724e-30 6.00372e-14 -0)
(-9.15792e-31 2.30403e-14 -0)
(1.10499e-31 -5.86029e-15 -0)
(-3.48662e-26 -1.9668e-12 0)
(-5.17615e-27 1.61283e-12 -0)
(-4.05959e-28 -3.84064e-13 0)
(1.11992e-29 1.25585e-13 0)
(1.70409e-29 4.96449e-14 0)
(2.39301e-29 1.77486e-13 0)
(-1.25956e-29 1.64975e-13 -0)
(-4.82144e-30 3.01971e-14 -0)
(-5.10675e-30 4.7607e-14 -0)
(-2.17213e-30 2.3198e-14 -0)
(-1.7079e-30 2.50432e-14 -0)
(5.82446e-31 -7.97691e-15 -0)
(-1.08801e-31 -9.40298e-15 0)
(1.2191e-30 5.80154e-14 0)
(-1.62158e-30 6.12324e-14 -0)
(-1.35802e-30 2.75969e-14 -0)
(1.1042e-30 -3.51649e-14 -0)
(-2.71016e-31 -8.63402e-15 0)
(-1.30624e-30 -2.37759e-14 0)
(-1.00869e-32 5.30378e-15 -0)
(-8.25118e-27 8.32036e-13 -0)
(-2.49332e-27 -1.03472e-12 0)
(-1.02558e-28 2.67932e-13 -0)
(-3.27242e-32 -2.3849e-14 0)
(8.1395e-30 -5.64132e-14 -0)
(-2.51512e-30 -1.07471e-13 0)
(-7.54237e-30 -6.43128e-14 0)
(7.97269e-31 6.40741e-15 0)
(2.01164e-30 3.78111e-14 0)
(5.53601e-31 3.18724e-14 0)
(-1.74181e-31 -3.15045e-14 0)
(9.40226e-32 1.53221e-15 0)
(4.95416e-31 -5.05871e-14 -0)
(-1.42312e-30 -5.6621e-14 0)
(-4.22603e-31 -2.95195e-14 0)
(-1.48187e-30 -3.00712e-14 0)
(-2.45159e-30 -5.57458e-14 0)
(-3.30591e-30 -5.11468e-14 0)
(1.17814e-31 8.8283e-15 0)
(2.4362e-32 -1.03023e-15 -0)
(-2.70887e-27 4.33525e-13 -0)
(-4.89579e-28 -4.45046e-13 0)
(-5.7102e-29 1.28968e-13 -0)
(1.27608e-29 -6.72973e-14 -0)
(1.96328e-29 -6.29481e-14 -0)
(1.47934e-29 -1.44696e-13 -0)
(-8.34675e-30 -1.64077e-13 0)
(-2.34214e-29 -1.2779e-13 0)
(-3.41336e-29 -1.39568e-13 0)
(-5.16584e-30 -2.3092e-14 0)
(-4.67643e-30 -2.28748e-14 0)
(5.26347e-30 2.90151e-14 0)
(-9.64408e-30 1.12513e-13 -0)
(1.10613e-30 -8.47138e-15 -0)
(4.18403e-32 -4.1772e-14 -0)
(-3.96591e-32 -2.46366e-15 0)
(1.22732e-30 5.19279e-14 0)
(2.36947e-30 6.08812e-14 0)
(-4.21066e-31 9.77503e-15 -0)
(5.99523e-31 -1.01906e-14 -0)
(-1.82936e-26 -1.03039e-12 0)
(-5.48402e-27 1.50026e-12 -0)
(-3.40769e-28 -3.99004e-13 0)
(5.4125e-31 -2.60917e-15 -0)
(-1.1123e-29 -1.66039e-13 0)
(-1.40988e-30 -1.44309e-14 0)
(-1.12489e-30 1.88259e-14 -0)
(7.80901e-30 -8.62298e-14 -0)
(1.06669e-30 -1.00579e-13 -0)
(-1.30101e-29 -1.27459e-13 0)
(-1.70228e-29 -9.46844e-14 0)
(-2.40959e-29 -1.02203e-13 0)
(-6.84483e-30 -5.81981e-14 0)
(-2.2857e-31 -4.97444e-14 0)
(-4.36291e-30 -5.98026e-14 0)
(5.49674e-31 9.08248e-15 0)
(-1.93166e-31 1.08097e-14 -0)
(-1.11754e-31 2.3489e-15 -0)
(1.64924e-31 -3.98764e-15 -0)
(-1.70951e-31 2.21991e-14 -0)
(-3.48111e-28 2.55563e-13 -0)
(-3.27156e-29 -2.0225e-13 0)
(3.87897e-30 3.27997e-14 0)
(2.39688e-30 2.28684e-14 0)
(1.27392e-29 7.93084e-14 0)
(3.93441e-30 3.15057e-14 0)
(1.00439e-29 8.61232e-14 0)
(6.95811e-30 9.06015e-14 0)
(2.17238e-30 9.14318e-14 0)
(-7.5451e-31 3.09642e-14 -0)
(-4.17143e-31 2.81255e-14 -0)
(-1.06514e-30 3.08094e-14 -0)
(-3.7182e-31 7.16759e-15 -0)
(-6.54841e-30 6.16333e-14 -0)
(-6.83423e-30 5.41937e-14 -0)
(-2.64308e-30 2.4915e-14 -0)
(-2.93243e-30 2.81403e-14 -0)
(7.53519e-31 -6.47149e-15 -0)
(-5.5542e-31 1.40639e-14 -0)
(-4.14439e-31 -2.96569e-14 0)
(-2.71443e-26 1.34389e-12 -0)
(-8.01331e-27 -1.74546e-12 0)
(-4.02183e-28 4.75229e-13 -0)
(7.59882e-30 1.99576e-14 0)
(6.98071e-30 1.82108e-13 0)
(-8.94857e-30 1.05176e-13 -0)
(4.17413e-31 5.89775e-15 0)
(1.36374e-29 1.07389e-13 0)
(7.24175e-30 8.93027e-14 0)
(4.18717e-30 8.88689e-14 0)
(4.36198e-31 7.85243e-14 0)
(-2.74779e-29 1.40175e-13 -0)
(-2.56142e-29 8.20991e-14 -0)
(4.48443e-30 -2.19971e-14 -0)
(5.68098e-30 -6.17364e-14 -0)
(3.72225e-30 -2.89439e-14 -0)
(2.70262e-30 -3.67047e-14 -0)
(2.4933e-31 -7.64677e-15 -0)
(-7.17226e-32 -2.52869e-14 0)
(2.4353e-31 -4.7951e-15 -0)
(-3.33559e-26 -2.0521e-12 0)
(-4.77079e-27 1.71564e-12 -0)
(-2.91898e-28 -4.02969e-13 0)
(-1.27986e-30 1.20381e-14 -0)
(-4.51851e-30 -7.30135e-14 0)
(-5.28356e-30 -6.46573e-14 0)
(-1.89239e-29 -1.13754e-13 0)
(-6.56317e-30 -4.85955e-14 0)
(-3.17118e-30 -2.87736e-14 0)
(-3.9611e-30 -2.6104e-14 0)
(-3.91656e-30 -3.9087e-14 0)
(6.71655e-33 1.31261e-14 0)
(-1.03076e-30 3.31859e-14 -0)
(-5.90536e-31 9.79379e-15 -0)
(-8.65331e-30 6.7081e-14 -0)
(-9.9122e-30 5.24438e-14 -0)
(1.6943e-30 -1.52181e-14 -0)
(2.84411e-31 -7.72322e-15 -0)
(-1.55326e-31 4.55471e-15 -0)
(9.59434e-31 -1.16475e-14 -0)
(-2.62617e-28 3.43629e-13 -0)
(-1.51707e-28 -2.61309e-13 0)
(-7.56969e-30 -3.40154e-14 0)
(-7.28197e-30 -6.7697e-14 0)
(-1.01842e-29 -1.17934e-13 0)
(-1.91313e-29 -9.43808e-14 0)
(8.0105e-31 3.69128e-15 0)
(6.92602e-30 4.17759e-14 0)
(3.49033e-30 4.96467e-14 0)
(-4.52842e-30 7.59461e-14 -0)
(-1.61249e-29 1.09651e-13 -0)
(1.41973e-30 -1.97369e-14 -0)
(-1.2053e-30 -2.39565e-14 0)
(-9.13338e-30 8.83147e-14 -0)
(-1.86658e-29 6.42025e-14 -0)
(4.33844e-30 -2.13357e-14 -0)
(1.18419e-30 -1.53042e-14 -0)
(-2.72502e-30 5.4175e-14 -0)
(2.68589e-31 -3.487e-15 -0)
(1.42662e-31 -9.24559e-15 -0)
(7.24186e-28 -1.21961e-13 -0)
(-1.10476e-27 -6.36221e-13 0)
(-1.761e-29 1.49578e-13 -0)
(-3.87505e-30 -1.61018e-14 0)
(1.12244e-30 2.593e-14 0)
(-1.5339e-31 8.22862e-15 -0)
(7.85523e-32 -2.01421e-15 -0)
(-1.69475e-31 -1.12898e-13 0)
(-4.56347e-31 -7.89722e-14 0)
(1.0414e-30 -4.74904e-14 -0)
(6.35207e-30 -1.03423e-13 -0)
(3.90886e-30 -5.43648e-14 -0)
(1.5277e-30 -2.55165e-14 -0)
(4.48958e-30 -5.11421e-14 -0)
(5.27025e-30 -5.82016e-14 -0)
(5.74951e-30 -1.20104e-13 -0)
(-2.43953e-30 -9.28193e-14 0)
(-4.10517e-30 -6.11159e-14 0)
(3.14745e-31 3.30126e-15 0)
(4.42337e-31 1.29499e-14 0)
(-5.92616e-28 -1.55119e-13 0)
(-4.51835e-28 4.9437e-13 -0)
(-3.92457e-30 -1.69191e-14 0)
(7.042e-30 1.02983e-13 0)
(7.49579e-31 4.90558e-14 0)
(-7.09885e-30 4.69725e-14 -0)
(2.60593e-31 -1.42094e-15 -0)
(-2.06135e-30 1.50554e-14 -0)
(2.10831e-30 -3.35195e-14 -0)
(3.76093e-30 -5.16801e-14 -0)
(-5.8293e-33 6.6093e-17 -0)
(4.2196e-30 -5.74608e-14 -0)
(-2.89619e-30 5.20043e-14 -0)
(1.12962e-31 -2.19874e-15 -0)
(-9.29402e-32 2.75755e-15 -0)
(-5.12304e-30 6.48885e-14 -0)
(-1.2004e-29 8.54449e-14 -0)
(8.39433e-30 -6.98078e-14 -0)
(-1.75091e-31 -1.13042e-14 0)
(-5.96891e-33 8.28158e-16 -0)
(-4.50134e-27 1.29536e-12 -0)
(-4.10642e-28 -4.99978e-13 0)
(-1.72521e-29 1.69963e-13 -0)
(-5.0838e-30 -2.46919e-14 0)
(1.35001e-29 9.28395e-14 0)
(1.15448e-29 1.2736e-13 0)
(-5.39624e-30 1.22678e-13 -0)
(-5.92222e-30 1.14047e-13 -0)
(-1.56058e-29 1.55659e-13 -0)
(-3.24953e-29 1.28307e-13 -0)
(-3.16893e-29 1.05939e-13 -0)
(-2.09888e-29 9.1875e-14 -0)
(1.18776e-30 -8.88542e-15 -0)
(-6.96144e-30 4.98689e-14 -0)
(8.7957e-31 -9.74444e-15 -0)
(1.17101e-31 -2.77816e-15 -0)
(-5.2556e-32 8.41135e-16 -0)
(-2.6249e-30 5.19147e-14 -0)
(1.03646e-31 -2.62209e-15 -0)
(1.55462e-31 -6.38687e-15 -0)
(-4.4186e-26 -2.75845e-12 0)
(-4.9909e-27 1.78271e-12 -0)
(-2.56238e-28 -4.06257e-13 0)
(-7.78303e-30 8.43321e-14 -0)
(-1.90035e-30 -3.25081e-14 0)
(1.23776e-30 -3.23511e-14 -0)
(2.95807e-30 -1.84726e-14 -0)
(4.22341e-30 -3.38999e-14 -0)
(2.80023e-30 -3.03765e-14 -0)
(-1.0659e-31 1.16022e-15 -0)
(1.22899e-32 -1.18415e-16 -0)
(1.7396e-31 -1.91827e-15 -0)
(2.64873e-31 -3.13076e-15 -0)
(1.71119e-30 -2.88184e-14 -0)
(7.02612e-32 -1.04136e-15 -0)
(3.7862e-31 -7.73249e-15 -0)
(-9.86271e-32 -1.00083e-14 0)
(-1.53077e-31 -2.99456e-15 0)
(-1.91243e-30 -4.80509e-14 0)
(-3.07162e-32 2.93262e-15 -0)
(-7.07327e-26 2.99489e-12 -0)
(-1.07535e-26 -2.38385e-12 0)
(-5.05459e-28 5.85317e-13 -0)
(-1.67582e-29 -5.8981e-14 0)
(-2.47439e-31 9.15175e-14 -0)
(-6.53049e-30 7.34213e-14 -0)
(-1.01589e-29 5.21464e-14 -0)
(-1.57682e-29 4.64646e-14 -0)
(1.5213e-29 -3.91674e-14 -0)
(1.84707e-29 -8.44427e-14 -0)
(1.14026e-29 -1.32457e-13 -0)
(-1.30808e-30 -6.0459e-14 0)
(1.22614e-30 -5.19639e-14 -0)
(2.42694e-32 -2.93596e-14 -0)
(6.49814e-32 -6.1846e-14 -0)
(-4.80315e-30 -6.35911e-14 0)
(-4.6853e-30 -5.05106e-14 0)
(5.8677e-31 1.52261e-14 0)
(-3.80461e-30 6.39403e-14 -0)
(-8.97828e-31 1.52783e-14 -0)
(-1.18109e-26 -8.09789e-13 0)
(-4.12658e-27 1.27572e-12 -0)
(-2.51602e-28 -3.38246e-13 0)
(-8.68164e-30 7.04046e-14 -0)
(-3.42282e-31 -8.60032e-15 0)
(-5.95652e-31 1.5966e-14 -0)
(-2.31847e-30 1.9343e-14 -0)
(5.0977e-30 -2.20931e-14 -0)
(3.7619e-30 -2.21313e-14 -0)
(7.04945e-31 -7.48035e-14 -0)
(-1.3133e-30 -3.65283e-14 0)
(-3.9728e-30 -4.68443e-14 0)
(1.56779e-30 -4.15806e-14 -0)
(2.55466e-30 -6.15784e-14 -0)
(-1.34562e-30 -3.74015e-14 0)
(-1.6092e-31 -2.61751e-15 0)
(2.93033e-31 4.71472e-15 0)
(6.22535e-31 4.34401e-14 0)
(-8.29306e-31 8.19493e-15 -0)
(1.14151e-30 -1.68816e-14 -0)
(-3.05615e-26 -1.90928e-12 0)
(-4.39806e-27 1.52863e-12 -0)
(-2.79235e-28 -3.87544e-13 0)
(-1.33976e-30 1.55998e-14 -0)
(-2.62479e-30 -1.17049e-13 0)
(-4.37503e-32 -1.0757e-13 0)
(-6.99406e-31 -5.02292e-14 0)
(4.17452e-30 -1.05945e-13 -0)
(6.93517e-31 -6.406e-14 -0)
(-5.282e-31 -8.93801e-15 0)
(6.91969e-30 8.80882e-14 0)
(-5.58483e-31 6.46774e-14 -0)
(-2.10265e-30 8.05045e-14 -0)
(-2.62982e-32 4.97849e-14 -0)
(6.44523e-31 3.55436e-14 0)
(-1.02276e-29 1.20447e-13 -0)
(-1.09056e-29 1.06778e-13 -0)
(5.82092e-31 -8.49928e-15 -0)
(-3.26993e-31 1.90767e-14 -0)
(-6.30443e-33 -5.34417e-16 0)
(-6.47475e-26 2.69761e-12 -0)
(-1.09749e-26 -2.37807e-12 0)
(-5.61401e-28 5.42801e-13 -0)
(-3.07614e-29 -1.13409e-13 0)
(9.66308e-30 9.67994e-14 0)
(6.72357e-30 5.77625e-14 0)
(4.49733e-30 6.99411e-14 0)
(-6.53593e-30 1.59766e-13 -0)
(-2.19782e-29 1.23402e-13 -0)
(-8.729e-30 4.57678e-14 -0)
(-5.02265e-30 5.36147e-14 -0)
(1.45733e-30 -7.8873e-15 -0)
(3.1077e-31 -2.09873e-14 -0)
(1.62323e-31 6.46615e-15 0)
(-5.44606e-30 6.85306e-14 -0)
(3.57514e-30 -3.02719e-14 -0)
(3.08536e-30 -6.45459e-14 -0)
(4.74624e-31 -3.21926e-14 -0)
(-1.01652e-31 -3.30603e-14 0)
(-9.99992e-31 -2.23167e-14 0)
(-4.67296e-28 -6.89826e-13 0)
(-1.1478e-28 2.06655e-13 -0)
(3.43895e-30 -1.01475e-13 -0)
(4.83862e-31 -5.84596e-15 -0)
(-8.45114e-31 -3.43963e-14 0)
(-9.99967e-32 1.01459e-14 -0)
(3.54392e-30 -4.60913e-14 -0)
(4.72913e-30 -5.19435e-14 -0)
(5.29888e-30 -5.32253e-14 -0)
(3.1579e-31 -3.12999e-15 -0)
(3.7499e-30 -5.4939e-14 -0)
(5.88375e-31 -6.28589e-15 -0)
(2.03501e-31 -3.77078e-14 -0)
(1.03824e-31 8.35572e-15 0)
(-7.99964e-31 8.99301e-15 -0)
(2.94903e-30 -3.80498e-14 -0)
(-1.67688e-31 -8.18266e-15 0)
(1.26744e-32 2.93258e-15 0)
(2.32079e-32 -2.62747e-15 -0)
(6.65902e-32 2.17639e-15 0)
)
;

boundaryField
{
    movingWall
    {
        type            calculated;
        value           nonuniform List<vector> 
20
(
(0 -1.07801e-12 -0)
(0 2.67212e-14 -0)
(0 -3.13718e-13 -0)
(0 -1.83482e-13 -0)
(0 -2.73745e-13 -0)
(0 -2.11899e-13 -0)
(0 -2.58335e-13 -0)
(0 -3.08596e-13 -0)
(0 -2.2106e-13 -0)
(0 -1.80766e-13 -0)
(0 -1.33956e-13 -0)
(0 -5.06948e-14 -0)
(0 -1.06028e-14 -0)
(0 8.35572e-15 -0)
(0 8.99301e-15 -0)
(0 -1.09447e-14 -0)
(0 8.06352e-14 -0)
(0 2.93258e-15 -0)
(0 -2.62747e-15 -0)
(0 2.17639e-15 -0)
)
;
    }
    fixedWalls
    {
        type            calculated;
        value           nonuniform List<vector> 
60
(
(0 -1.51016e-11 -0)
(0 -9.41259e-13 -0)
(0 9.962e-12 -0)
(0 -7.60595e-12 -0)
(0 4.04806e-12 -0)
(0 2.41807e-12 -0)
(0 -6.72213e-12 -0)
(0 6.80379e-13 -0)
(0 7.86247e-12 -0)
(0 -7.20653e-12 -0)
(0 6.30959e-13 -0)
(0 1.83303e-12 -0)
(0 -1.39264e-12 -0)
(0 2.41998e-12 -0)
(0 -7.84393e-12 -0)
(0 1.05313e-11 -0)
(0 -5.50882e-12 -0)
(0 -6.99903e-12 -0)
(0 1.03596e-11 -0)
(0 -9.48591e-13 -0)
(0 -9.08548e-15 -0)
(0 -1.74228e-14 -0)
(0 -7.5422e-15 -0)
(0 -7.60732e-16 -0)
(0 -9.4589e-15 -0)
(0 -2.35323e-14 -0)
(0 2.40247e-14 -0)
(0 -2.15153e-14 -0)
(0 -2.03149e-14 -0)
(0 -3.2949e-14 -0)
(0 -6.17211e-15 -0)
(0 1.36631e-14 -0)
(0 -2.88298e-15 -0)
(0 -9.73633e-15 -0)
(0 -4.1896e-15 -0)
(0 3.59913e-15 -0)
(0 -2.70474e-14 -0)
(0 4.71873e-15 -0)
(0 -9.18137e-15 -0)
(0 1.22387e-14 -0)
(0 -9.86577e-13 -0)
(0 3.50521e-12 -0)
(0 -2.54712e-13 -0)
(0 3.72609e-13 -0)
(0 1.462e-13 -0)
(0 1.35857e-13 -0)
(0 1.82953e-13 -0)
(0 1.43075e-13 -0)
(0 9.2178e-14 -0)
(0 1.28297e-13 -0)
(0 2.60717e-13 -0)
(0 1.77721e-13 -0)
(0 1.78335e-13 -0)
(0 2.22605e-13 -0)
(0 1.36864e-13 -0)
(0 3.87989e-14 -0)
(0 1.19236e-13 -0)
(0 8.47211e-14 -0)
(0 6.02498e-14 -0)
(0 7.41958e-15 -0)
)
;
    }
    frontAndBack
    {
        type            empty;
    }
}


// ************************************************************************* //
