/*--------------------------------*- C++ -*----------------------------------*\
| =========                 |                                                 |
| \\      /  F ield         | OpenFOAM: The Open Source CFD Toolbox           |
|  \\    /   O peration     | Version:  2506                                  |
|   \\  /    A nd           | Website:  www.openfoam.com                      |
|    \\/     M anipulation  |                                                 |
\*---------------------------------------------------------------------------*/
FoamFile
{
    version     2.0;
    format      ascii;
    arch        "LSB;label=32;scalar=64";
    class       volScalarField;
    location    "7.875";
    object      Lambda2Field;
}
// * * * * * * * * * * * * * * * * * * * * * * * * * * * * * * * * * * * * * //

dimensions      [0 0 -2 0 0 0 0];

internalField   nonuniform List<scalar> 
400
(
0
0
-2.11856e-26
-1.13634e-26
8.73532e-28
1.46201e-28
6.93341e-29
-2.64261e-28
0
1.81662e-28
3.24001e-28
1.13618e-30
0
7.9092e-29
0
0
0
0
9.99482e-29
0
9.19184e-25
8.55958e-25
1.83671e-26
2.97395e-27
-8.33203e-28
-5.14242e-28
6.83684e-28
1.15764e-27
1.05011e-28
-3.63613e-28
0
0
-8.62453e-29
0
0
3.15257e-28
6.42076e-28
8.05047e-28
1.86751e-28
0
0
0
-4.77855e-26
0
0
-1.28419e-27
-8.62425e-28
1.49514e-28
3.99267e-28
2.16611e-29
-6.82371e-28
-1.84936e-28
5.15265e-28
6.69997e-28
0
2.69931e-28
-1.84401e-28
0
1.37086e-28
1.73515e-29
0
1.08737e-25
-1.12693e-26
-9.30527e-28
8.71651e-28
-4.95202e-27
-3.25645e-27
5.60162e-28
3.57955e-28
1.05901e-28
9.68684e-29
0
0
-1.54203e-28
-3.7412e-28
0
0
0
9.02358e-29
0
0
0
1.18395e-26
7.34684e-28
2.81931e-27
0
0
1.17612e-27
4.44497e-28
6.05465e-28
6.15436e-28
6.47301e-28
1.96403e-28
9.90839e-29
-5.89509e-29
-3.77489e-29
0
1.66062e-28
0
0
4.18643e-26
8.16208e-26
0
0
-2.73245e-29
-3.87784e-27
-3.13481e-27
-1.36536e-27
-5.07162e-28
1.08774e-28
4.18311e-28
0
-1.80216e-27
0
-3.63164e-28
1.26374e-30
1.23718e-28
-2.35722e-28
2.99249e-29
0
5.35736e-25
3.21386e-25
-1.55439e-26
7.13467e-27
-1.19669e-27
8.59355e-28
4.32329e-29
-2.86251e-28
0
0
-6.06342e-28
1.14053e-27
1.87977e-27
2.48005e-28
-1.46657e-28
1.49283e-28
0
0
0
1.85982e-28
3.07516e-26
1.57279e-25
1.16006e-26
3.05357e-27
1.71389e-28
2.14809e-28
-2.20592e-28
0
0
-7.43988e-29
0
1.76403e-27
1.84559e-27
3.21409e-29
8.89137e-31
4.17033e-28
0
0
3.5348e-28
-5.06023e-29
3.50185e-25
3.73788e-25
-1.91498e-26
9.59114e-27
-6.21567e-27
3.5174e-28
5.74825e-28
1.11858e-28
0
0
-5.83392e-28
-3.43053e-27
0
2.11148e-29
-4.07916e-28
1.89188e-29
0
0
4.95713e-29
9.28275e-29
0
-9.17361e-26
-2.48215e-26
3.59132e-27
-2.84652e-28
1.68341e-28
0
3.19424e-28
0
2.71325e-29
8.19824e-28
1.53991e-28
1.14781e-27
1.00895e-28
-3.02863e-28
9.57536e-29
0
3.13091e-30
6.37793e-29
0
1.82105e-25
1.88003e-25
1.09375e-26
1.84205e-27
-2.9678e-28
-9.61716e-28
4.21714e-28
0
0
-8.76696e-28
1.27785e-28
0
8.53423e-29
-1.11413e-27
0
0
1.89385e-28
1.10056e-28
1.67556e-28
1.35793e-28
3.5192e-25
0
8.88006e-31
1.53563e-29
5.05169e-29
1.25196e-27
1.60325e-27
0
3.67945e-28
3.64275e-28
5.76441e-28
0
1.55426e-28
1.66319e-28
4.44262e-28
0
-8.95632e-28
0
8.55896e-29
0
1.00046e-25
0
7.99057e-27
0
0
-4.19072e-28
0
3.55154e-28
-6.1431e-29
6.72304e-28
5.65056e-28
6.88529e-29
1.19579e-28
2.68411e-29
8.28669e-34
-5.7855e-28
-2.57021e-28
-7.06945e-28
1.81896e-28
0
2.05487e-26
0
-3.73377e-27
2.5815e-28
-9.1846e-28
-1.31881e-27
-8.11109e-28
0
-2.72e-27
-2.15252e-27
2.69017e-28
1.79383e-27
0
2.35336e-28
0
0
0
4.18104e-28
0
0
0
-2.39239e-25
-3.08836e-26
-8.16458e-28
0
1.50751e-27
4.61474e-28
0
6.46012e-28
0
4.53871e-28
6.25424e-28
0
1.46126e-28
0
0
0
7.9386e-29
3.37883e-28
1.18501e-29
-1.68292e-24
0
-5.03745e-26
2.34299e-27
-2.01896e-27
-3.06756e-28
-6.6253e-28
0
0
-9.04226e-28
-2.41085e-27
-3.077e-29
1.21769e-28
-5.79082e-29
-3.06925e-28
0
2.00549e-28
1.35332e-29
-3.28671e-28
3.20564e-28
1.16926e-24
6.95911e-25
3.32146e-27
1.36908e-27
6.31438e-30
0
0
8.70534e-28
1.4257e-27
-3.44464e-28
0
3.993e-28
6.84646e-28
-3.99433e-28
0
2.57428e-28
3.79831e-28
0
0
4.97895e-29
0
2.12324e-25
0
5.34113e-27
0
9.21614e-29
2.15807e-28
6.2869e-28
-5.33302e-28
3.28695e-28
0
1.5929e-28
6.59195e-29
2.39889e-28
-9.54482e-29
-5.69254e-28
1.78098e-28
0
3.26337e-28
0
0
0
-4.04835e-26
9.69861e-32
-1.25906e-27
-1.91523e-28
-7.70306e-28
-2.55052e-27
-8.89603e-28
7.13617e-28
2.4781e-28
7.21949e-29
0
1.67799e-30
-4.1629e-29
0
0
-8.48872e-29
-1.60727e-28
1.33324e-28
6.52017e-26
2.63596e-26
0
0
-4.28875e-29
0
4.41705e-28
1.22876e-28
8.2433e-28
0
2.22718e-28
7.34684e-28
0
0
0
8.5959e-29
7.45723e-30
0
0
0
)
;

boundaryField
{
    movingWall
    {
        type            calculated;
        value           nonuniform List<scalar> 
20
(
6.04196e-26
3.91583e-26
-1.18592e-26
0
-1.8462e-27
2.25284e-27
2.89797e-27
7.04618e-28
1.80448e-27
0
6.37572e-28
4.55534e-28
4.66004e-30
0
0
9.61115e-28
7.9396e-28
0
0
0
)
;
    }
    fixedWalls
    {
        type            calculated;
        value           nonuniform List<scalar> 
60
(
0
2.06014e-23
-3.22867e-24
-2.12773e-24
0
2.11127e-25
2.69485e-24
2.20597e-24
2.03591e-24
-8.05203e-25
4.82556e-24
1.49775e-24
2.67761e-25
5.62333e-26
-5.14727e-24
0
1.75987e-23
3.55059e-25
-4.28673e-24
9.52347e-25
0
0
0
0
3.2409e-29
0
1.36498e-28
1.51511e-28
0
0
0
0
0
0
1.18501e-29
6.37129e-28
4.97895e-29
0
4.89357e-28
0
6.23041e-24
3.43887e-26
2.19648e-25
-2.37656e-26
6.65415e-27
3.84303e-28
-2.0986e-28
-1.27411e-27
-2.56538e-30
7.09845e-28
1.5349e-27
2.30164e-28
0
4.11347e-29
0
2.49135e-28
1.86394e-27
3.63861e-28
7.99153e-28
0
)
;
    }
    frontAndBack
    {
        type            empty;
    }
}


// ************************************************************************* //
