/*--------------------------------*- C++ -*----------------------------------*\
| =========                 |                                                 |
| \\      /  F ield         | OpenFOAM: The Open Source CFD Toolbox           |
|  \\    /   O peration     | Version:  2506                                  |
|   \\  /    A nd           | Website:  www.openfoam.com                      |
|    \\/     M anipulation  |                                                 |
\*---------------------------------------------------------------------------*/
FoamFile
{
    version     2.0;
    format      ascii;
    arch        "LSB;label=32;scalar=64";
    class       volScalarField;
    location    "7.875";
    object      QField;
}
// * * * * * * * * * * * * * * * * * * * * * * * * * * * * * * * * * * * * * //

dimensions      [0 0 -2 0 0 0 0];

internalField   nonuniform List<scalar> 
400
(
3.85659e-24
6.58907e-25
5.8739e-26
1.30471e-26
-1.10319e-27
3.27737e-28
-2.25696e-28
2.6693e-28
0
-3.21489e-28
-4.08771e-28
-2.88918e-29
-1.631e-29
-2.53212e-28
-1.63669e-28
0
0
0
-5.41961e-28
0
5.52655e-24
9.25448e-25
3.3937e-26
5.17815e-27
8.38855e-28
5.14264e-28
-6.83684e-28
-1.34046e-27
-1.05011e-28
3.77657e-28
4.20655e-28
1.29653e-28
5.7939e-28
1.00122e-27
2.96771e-28
-5.94912e-28
-5.2665e-28
-9.5311e-28
-7.40818e-28
0
2.85961e-24
2.79084e-25
6.21748e-26
1.25303e-27
-3.93902e-28
1.35222e-27
1.31484e-27
-6.79383e-28
-3.99267e-28
-2.16611e-29
6.89041e-28
2.04755e-28
-6.69022e-28
-6.69997e-28
0
-9.48968e-28
6.13655e-28
3.159e-28
-2.50783e-28
-1.12907e-28
6.47285e-25
-1.08789e-25
1.35399e-26
2.43886e-27
-1.60183e-27
5.80507e-27
3.50861e-27
-6.04024e-28
-3.57955e-28
-1.05901e-28
1.17635e-28
0
0
2.06288e-28
3.80678e-28
2.48389e-29
1.49468e-28
0
-9.02358e-29
0
-3.94167e-27
1.91229e-26
-1.3798e-26
-7.55673e-28
-3.43211e-27
8.41744e-28
2.02837e-28
-1.85912e-27
-6.63464e-28
-7.30936e-28
-6.19727e-28
-6.8961e-28
-1.96403e-28
-2.80176e-28
6.54436e-29
8.03989e-29
-6.59229e-29
-1.66062e-28
0
0
-4.18643e-26
-1.11561e-25
0
1.84144e-27
4.73689e-28
3.93304e-27
3.38966e-27
1.51732e-27
5.47877e-28
-1.08774e-28
-5.86981e-28
0
2.19151e-27
0
3.97549e-28
-6.09411e-29
-1.23718e-28
3.61639e-28
-2.96549e-28
0
-5.21757e-25
-3.23195e-25
1.71707e-26
-7.19804e-27
1.5739e-27
-9.59136e-28
-3.56441e-28
3.99635e-28
-2.29089e-28
7.19399e-28
1.08712e-27
-1.84488e-27
-1.87977e-27
-3.7395e-28
3.03172e-28
-3.31173e-28
0
0
0
-3.30315e-28
-8.06691e-25
-3.2725e-25
-1.82808e-26
-3.30342e-27
-7.82625e-30
-1.86243e-27
3.90964e-28
-4.24233e-28
3.25541e-28
1.04601e-28
2.766e-29
-2.24034e-27
-2.32888e-27
-1.62618e-28
-8.89137e-31
-1.0846e-27
2.80615e-29
0
-3.5348e-28
6.91669e-29
-1.4743e-25
-3.43248e-25
2.44663e-26
-9.59114e-27
6.31317e-27
-3.5174e-28
-5.74825e-28
-1.11858e-28
1.11816e-27
1.36885e-28
1.00628e-27
3.44284e-27
7.32241e-30
1.2455e-28
4.07999e-28
-1.74919e-28
2.79517e-28
0
-6.3891e-29
2.61149e-28
1.31827e-24
3.06918e-25
3.62454e-26
-3.59132e-27
1.1495e-27
-2.13699e-28
1.81948e-28
-4.09535e-28
1.03712e-28
-2.71325e-29
-8.19824e-28
1.00907e-27
-2.78125e-27
-2.7226e-28
6.97734e-28
-9.57536e-29
0
-4.79607e-29
-4.32933e-28
0
9.68413e-25
2.36438e-25
7.56638e-27
-1.66882e-28
1.08188e-27
1.06243e-27
-5.5662e-28
-3.26356e-28
3.27928e-28
1.17831e-27
-3.04647e-28
0
-8.53423e-29
1.7743e-27
7.50104e-28
0
-7.46024e-28
-2.83785e-28
-3.50857e-28
-3.15856e-28
-6.6211e-26
1.12569e-25
1.27711e-28
1.06217e-28
-1.9265e-28
-1.91812e-27
-2.17061e-27
4.85479e-28
-5.51562e-28
-3.64275e-28
-7.01334e-28
1.2457e-29
-3.30381e-28
-1.66319e-28
-1.17698e-27
5.92396e-28
9.35462e-28
-1.94423e-28
-2.50761e-28
0
-2.79711e-25
-4.06633e-26
-8.29581e-27
1.38497e-27
4.13475e-29
5.38509e-28
0
-3.69686e-29
1.73865e-28
-1.39121e-27
-1.28862e-27
-2.48104e-28
-1.19579e-28
1.40427e-28
7.80263e-31
5.78877e-28
3.35813e-28
8.45553e-28
-7.31125e-28
0
9.3458e-25
1.46862e-25
8.83423e-27
4.35498e-28
9.37103e-28
1.74756e-27
1.60884e-27
5.7664e-28
2.72858e-27
2.15617e-27
-2.69017e-28
-1.79383e-27
0
-2.35336e-28
0
0
0
-1.05342e-27
0
0
2.06276e-24
3.85376e-25
3.87565e-26
1.76321e-27
1.46449e-28
-2.15855e-27
-6.42804e-28
1.84175e-28
-6.92372e-28
0
-5.77453e-28
-6.77856e-28
0
-7.05824e-28
0
0
0
4.83006e-28
-3.88034e-28
9.33065e-29
2.16092e-24
2.12501e-25
6.72086e-26
-2.41745e-27
2.02244e-27
1.03886e-27
6.78748e-28
8.12468e-28
1.16081e-28
1.86238e-27
2.60612e-27
3.38753e-28
-1.21769e-28
6.11095e-29
4.1394e-28
2.09186e-28
-2.00549e-28
9.97127e-29
5.27475e-28
-3.20564e-28
3.17511e-24
5.10774e-25
2.56082e-26
2.00584e-27
6.81108e-29
0
0
-9.48884e-28
-4.09378e-27
3.63305e-28
2.55418e-28
-3.993e-28
-6.84646e-28
3.99434e-28
1.75089e-28
-8.69778e-28
-5.28257e-28
-4.27508e-28
0
-1.91258e-28
2.45638e-24
3.61706e-25
4.47214e-26
4.93351e-28
6.10146e-28
-9.21614e-29
-2.15807e-28
-1.2974e-27
5.33962e-28
-9.82827e-28
1.2535e-27
-8.93952e-28
-6.59195e-29
-2.39889e-28
2.28728e-28
8.17188e-28
-1.78098e-28
0
-5.00241e-28
0
1.01428e-24
8.60726e-26
4.09612e-26
-8.44122e-30
1.2591e-27
1.92577e-28
8.52777e-28
3.14523e-27
1.86479e-27
-8.91304e-28
-8.28136e-28
-2.30305e-28
0
-3.51111e-29
4.86052e-28
1.05919e-28
2.27923e-28
1.37899e-28
1.61417e-28
-1.80747e-28
6.40475e-25
8.66656e-26
5.45748e-27
0
1.9763e-28
0
-4.06003e-28
-1.22876e-28
-1.55858e-27
0
-3.99414e-28
-7.54528e-28
2.32625e-28
0
0
-7.63724e-28
1.48037e-28
0
0
0
)
;

boundaryField
{
    movingWall
    {
        type            calculated;
        value           nonuniform List<scalar> 
20
(
-6.04428e-26
-4.53118e-26
1.29613e-26
1.03845e-27
1.94279e-27
-2.25284e-27
-1.32965e-27
-7.04618e-28
-2.37743e-27
5.55998e-28
-6.42918e-28
-7.3569e-28
-5.8512e-29
0
0
-1.68061e-27
-1.17114e-27
0
0
0
)
;
    }
    fixedWalls
    {
        type            calculated;
        value           nonuniform List<scalar> 
60
(
1.67701e-23
2.63965e-23
1.31862e-23
3.10357e-24
-8.4866e-25
-4.49005e-25
-2.69485e-24
-5.65659e-24
-8.13119e-25
5.87659e-24
5.22423e-24
-3.71367e-25
-1.30083e-24
4.35686e-24
9.74133e-24
1.07136e-23
1.42915e-23
1.17006e-23
4.6314e-24
2.66956e-24
0
0
0
0
2.52815e-28
0
-4.06812e-28
-1.51511e-28
0
0
0
0
0
0
1.52873e-28
-6.37129e-28
-3.13357e-28
0
-5.6931e-28
0
1.49101e-24
1.25448e-24
-1.82288e-25
3.6097e-26
-7.35741e-27
1.09376e-27
3.43055e-28
1.31202e-27
2.98438e-28
-8.54221e-28
-1.4603e-27
-4.09382e-28
1.83273e-28
-2.24333e-28
4.86308e-28
-2.49135e-28
-1.86394e-27
-3.63861e-28
-1.39791e-27
0
)
;
    }
    frontAndBack
    {
        type            empty;
    }
}


// ************************************************************************* //
