/*--------------------------------*- C++ -*----------------------------------*\
| =========                 |                                                 |
| \\      /  F ield         | OpenFOAM: The Open Source CFD Toolbox           |
|  \\    /   O peration     | Version:  2506                                  |
|   \\  /    A nd           | Website:  www.openfoam.com                      |
|    \\/     M anipulation  |                                                 |
\*---------------------------------------------------------------------------*/
FoamFile
{
    version     2.0;
    format      ascii;
    arch        "LSB;label=32;scalar=64";
    class       volVectorField;
    location    "7.875";
    object      UNear;
}
// * * * * * * * * * * * * * * * * * * * * * * * * * * * * * * * * * * * * * //

dimensions      [0 1 -1 0 0 0 0];

internalField   nonuniform List<vector> 
400
(
(-1 3.61954e-14 0)
(-1 -6.34563e-15 0)
(-1 1.58742e-15 0)
(-1 -2.45795e-16 0)
(-1 8.17772e-17 0)
(-1 6.85642e-17 0)
(-1 5.54776e-17 0)
(-1 1.53911e-17 0)
(-1 -4.30024e-17 0)
(-1 -1.821e-17 0)
(-1 6.29611e-18 0)
(-1 3.91568e-17 0)
(-1 5.44286e-18 0)
(-1 3.21615e-17 0)
(-1 -1.57987e-19 0)
(-1 -4.21216e-18 0)
(-1 5.59423e-17 0)
(-1 1.35695e-16 0)
(-1 9.69094e-17 0)
(-1 -2.27137e-17 0)
(-1 2.55644e-15 0)
(-1 -1.95731e-16 0)
(-1 9.82628e-17 0)
(-1 -5.08116e-17 0)
(-1 -3.54538e-17 0)
(-1 5.23494e-17 0)
(-1 2.77895e-17 0)
(-1 -3.17288e-17 0)
(-1 -8.88158e-17 0)
(-1 -5.10999e-17 0)
(-1 -4.23722e-17 0)
(-1 -2.84976e-17 0)
(-1 -1.84554e-17 0)
(-1 7.24588e-17 0)
(-1 1.33289e-16 0)
(-1 1.47244e-16 0)
(-1 8.12831e-17 0)
(-1 3.13847e-17 0)
(-1 3.06465e-18 0)
(-1 -4.3557e-17 0)
(-1 -2.22622e-14 0)
(-1 3.76873e-15 0)
(-1 -9.16687e-16 0)
(-1 2.65234e-16 0)
(-1 1.05551e-16 0)
(-1 6.7073e-17 0)
(-1 -6.0743e-17 0)
(-1 -1.29337e-16 0)
(-1 -6.24849e-17 0)
(-1 -5.56849e-17 0)
(-1 -5.84891e-17 0)
(-1 -1.40422e-16 0)
(-1 -8.36695e-17 0)
(-1 -4.70355e-17 0)
(-1 3.99232e-17 0)
(-1 5.35244e-17 0)
(-1 1.85235e-17 0)
(-1 -5.9503e-17 0)
(-1 -3.97474e-17 0)
(-1 -1.88555e-17 0)
(-1 1.77274e-14 0)
(-1 -3.20936e-15 0)
(-1 1.05701e-15 0)
(-1 8.91763e-17 0)
(-1 3.43256e-16 0)
(-1 1.34828e-16 0)
(-1 -7.63485e-17 0)
(-1 -1.59666e-16 0)
(-1 -1.07269e-16 0)
(-1 -9.36346e-17 0)
(-1 -6.81981e-17 0)
(-1 -7.30165e-17 0)
(-1 1.1571e-17 0)
(-1 2.10133e-17 0)
(-1 -2.64824e-17 0)
(-1 -4.92093e-17 0)
(-1 -3.14005e-17 0)
(-1 3.13893e-17 0)
(-1 5.49397e-17 0)
(-1 -1.90183e-18 0)
(-1 -9.91686e-15 0)
(-1 2.40965e-15 0)
(-1 -3.82774e-16 0)
(-1 1.37214e-18 0)
(-1 -1.44284e-16 0)
(-1 2.34028e-17 0)
(-1 1.17276e-16 0)
(-1 1.24429e-16 0)
(-1 5.32023e-17 0)
(-1 1.73693e-17 0)
(-1 5.52877e-18 0)
(-1 6.13641e-17 0)
(-1 -9.79332e-18 0)
(-1 2.51342e-17 0)
(-1 1.43161e-17 0)
(-1 4.92786e-17 0)
(-1 4.3978e-17 0)
(-1 6.46357e-17 0)
(-1 1.3345e-17 0)
(-1 -2.36472e-17 0)
(-1 -6.24847e-15 0)
(-1 1.10007e-15 0)
(-1 -4.42759e-16 0)
(-1 -1.89618e-16 0)
(-1 -3.11888e-16 0)
(-1 -1.02238e-16 0)
(-1 5.08709e-17 0)
(-1 1.83281e-16 0)
(-1 2.44566e-16 0)
(-1 2.23707e-16 0)
(-1 2.04435e-16 0)
(-1 1.81405e-16 0)
(-1 -8.57154e-17 0)
(-1 -1.30572e-16 0)
(-1 -1.00163e-18 0)
(-1 1.60976e-17 0)
(-1 2.3635e-17 0)
(-1 3.89196e-17 0)
(-1 -4.30757e-17 0)
(-1 -5.88307e-17 0)
(-1 1.7754e-14 0)
(-1 -3.65538e-15 0)
(-1 8.5405e-16 0)
(-1 -2.07441e-16 0)
(-1 6.69899e-17 0)
(-1 9.76989e-17 0)
(-1 -5.97519e-17 0)
(-1 -9.05604e-17 0)
(-1 -1.06055e-17 0)
(-1 1.02073e-16 0)
(-1 1.79784e-16 0)
(-1 2.35765e-16 0)
(-1 1.17613e-16 0)
(-1 4.59489e-18 0)
(-1 7.29552e-17 0)
(-1 6.05202e-17 0)
(-1 -1.78697e-17 0)
(-1 -4.75772e-17 0)
(-1 -4.13587e-17 0)
(-1 -7.70079e-18 0)
(-1 -1.36214e-15 0)
(-1 1.61759e-16 0)
(-1 1.18262e-16 0)
(-1 1.04812e-16 0)
(-1 1.60629e-16 0)
(-1 1.24879e-16 0)
(-1 1.16623e-16 0)
(-1 7.67991e-17 0)
(-1 2.37596e-17 0)
(-1 -2.43672e-17 0)
(-1 -1.48315e-17 0)
(-1 -3.4572e-17 0)
(-1 -5.18753e-17 0)
(-1 -1.06248e-16 0)
(-1 -1.26107e-16 0)
(-1 -1.06084e-16 0)
(-1 -1.04207e-16 0)
(-1 -1.16437e-16 0)
(-1 -3.94925e-17 0)
(-1 1.39745e-17 0)
(-1 -2.01983e-14 0)
(-1 4.59094e-15 0)
(-1 -8.46293e-16 0)
(-1 3.80748e-16 0)
(-1 3.83328e-17 0)
(-1 -8.50818e-17 0)
(-1 7.07751e-17 0)
(-1 1.26991e-16 0)
(-1 8.10922e-17 0)
(-1 4.71162e-17 0)
(-1 5.55495e-18 0)
(-1 -1.96026e-16 0)
(-1 -3.11991e-16 0)
(-1 -2.03865e-16 0)
(-1 -9.202e-17 0)
(-1 -1.28602e-16 0)
(-1 -7.36313e-17 0)
(-1 -3.2606e-17 0)
(-1 2.83635e-18 0)
(-1 -5.07873e-17 0)
(-1 1.62545e-14 0)
(-1 -2.78076e-15 0)
(-1 7.24368e-16 0)
(-1 -1.06318e-16 0)
(-1 6.18859e-17 0)
(-1 8.17163e-17 0)
(-1 1.66358e-16 0)
(-1 1.35057e-16 0)
(-1 1.10211e-16 0)
(-1 1.51743e-16 0)
(-1 1.00201e-16 0)
(-1 5.11694e-19 0)
(-1 -3.106e-17 0)
(-1 -6.0297e-17 0)
(-1 -1.28998e-16 0)
(-1 -1.89006e-16 0)
(-1 -1.11334e-16 0)
(-1 -3.68255e-17 0)
(-1 -3.41023e-17 0)
(-1 -8.23726e-17 0)
(-1 -7.64246e-16 0)
(-1 5.80565e-16 0)
(-1 2.22537e-16 0)
(-1 1.07567e-16 0)
(-1 8.63554e-17 0)
(-1 2.02703e-16 0)
(-1 2.17012e-16 0)
(-1 1.6579e-16 0)
(-1 7.03034e-17 0)
(-1 -5.96267e-17 0)
(-1 -1.47057e-16 0)
(-1 -7.19328e-17 0)
(-1 5.0312e-17 0)
(-1 -1.03419e-16 0)
(-1 -2.90734e-16 0)
(-1 -2.03342e-16 0)
(-1 -7.73769e-17 0)
(-1 -5.03003e-17 0)
(-1 -7.70256e-17 0)
(-1 -1.54303e-17 0)
(-1 -5.93784e-15 0)
(-1 1.73644e-15 0)
(-1 -1.17731e-16 0)
(-1 2.40659e-16 0)
(-1 4.32872e-17 0)
(-1 -1.8641e-17 0)
(-1 -3.8999e-17 0)
(-1 1.50113e-18 0)
(-1 5.77858e-18 0)
(-1 -2.19285e-17 0)
(-1 -6.14184e-17 0)
(-1 -7.19006e-17 0)
(-1 -5.98712e-17 0)
(-1 -8.77864e-17 0)
(-1 -9.05517e-17 0)
(-1 -4.78713e-17 0)
(-1 2.62826e-17 0)
(-1 6.71702e-17 0)
(-1 9.53409e-17 0)
(-1 3.41576e-17 0)
(-1 3.8204e-15 0)
(-1 -9.13963e-16 0)
(-1 2.31961e-16 0)
(-1 6.83801e-17 0)
(-1 1.52801e-17 0)
(-1 -1.51128e-16 0)
(-1 -1.83395e-16 0)
(-1 -1.36918e-16 0)
(-1 -6.28979e-17 0)
(-1 -7.27734e-17 0)
(-1 -8.81984e-17 0)
(-1 -7.34343e-17 0)
(-1 -5.56914e-17 0)
(-1 -5.13759e-17 0)
(-1 -3.3704e-17 0)
(-1 -7.89513e-17 0)
(-1 -1.40488e-16 0)
(-1 -1.20249e-16 0)
(-1 1.5489e-17 0)
(-1 -7.20746e-18 0)
(-1 -3.47498e-15 0)
(-1 8.2132e-16 0)
(-1 -1.01505e-16 0)
(-1 2.0589e-16 0)
(-1 1.45414e-16 0)
(-1 9.06464e-17 0)
(-1 -4.39872e-17 0)
(-1 -5.19278e-17 0)
(-1 -1.00256e-16 0)
(-1 -2.53261e-16 0)
(-1 -2.99127e-16 0)
(-1 -2.28449e-16 0)
(-1 -1.33676e-16 0)
(-1 -1.39595e-16 0)
(-1 -9.02638e-17 0)
(-1 -4.21504e-17 0)
(-1 -6.24822e-17 0)
(-1 -5.05617e-17 0)
(-1 -3.95278e-17 0)
(-1 -2.43408e-17 0)
(-1 1.60184e-14 0)
(-1 -2.79961e-15 0)
(-1 6.30728e-16 0)
(-1 -9.22903e-17 0)
(-1 5.84578e-17 0)
(-1 -3.82601e-17 0)
(-1 -1.60133e-16 0)
(-1 -1.24584e-16 0)
(-1 -9.2184e-17 0)
(-1 -9.18702e-17 0)
(-1 -1.03786e-16 0)
(-1 -9.0686e-17 0)
(-1 -8.46036e-17 0)
(-1 -5.93784e-17 0)
(-1 -6.74703e-17 0)
(-1 -4.89648e-17 0)
(-1 9.85452e-18 0)
(-1 5.11184e-17 0)
(-1 3.98002e-17 0)
(-1 -1.0474e-17 0)
(-1 -2.36178e-14 0)
(-1 4.51099e-15 0)
(-1 -8.63565e-16 0)
(-1 2.84129e-16 0)
(-1 -2.70374e-18 0)
(-1 -8.89455e-17 0)
(-1 -1.94815e-16 0)
(-1 -3.39359e-16 0)
(-1 -3.88411e-16 0)
(-1 -2.18736e-16 0)
(-1 -8.6085e-17 0)
(-1 2.16358e-17 0)
(-1 -2.35961e-17 0)
(-1 -8.26627e-19 0)
(-1 -1.0507e-18 0)
(-1 7.55318e-17 0)
(-1 9.27587e-17 0)
(-1 3.85371e-17 0)
(-1 -5.95025e-17 0)
(-1 -5.87648e-17 0)
(-1 1.45852e-14 0)
(-1 -3.23472e-15 0)
(-1 7.43844e-16 0)
(-1 -1.23311e-16 0)
(-1 3.97987e-17 0)
(-1 -3.73075e-17 0)
(-1 -1.19861e-16 0)
(-1 -2.30737e-16 0)
(-1 -1.69981e-16 0)
(-1 -9.42396e-18 0)
(-1 3.59531e-17 0)
(-1 8.48085e-17 0)
(-1 -3.77048e-17 0)
(-1 -4.14864e-17 0)
(-1 3.59777e-17 0)
(-1 6.14781e-17 0)
(-1 6.21528e-17 0)
(-1 1.43309e-17 0)
(-1 -1.01197e-16 0)
(-1 -6.76184e-17 0)
(-1 1.60068e-14 0)
(-1 -2.87713e-15 0)
(-1 7.20524e-16 0)
(-1 -8.58829e-17 0)
(-1 2.24247e-17 0)
(-1 4.06714e-19 0)
(-1 1.39243e-17 0)
(-1 -3.94027e-17 0)
(-1 -1.08261e-17 0)
(-1 5.90959e-17 0)
(-1 7.8554e-17 0)
(-1 -8.6349e-18 0)
(-1 -2.61185e-17 0)
(-1 -5.28235e-19 0)
(-1 1.81333e-17 0)
(-1 -8.49139e-17 0)
(-1 -1.02134e-16 0)
(-1 -6.84872e-17 0)
(-1 -1.7141e-17 0)
(-1 1.17968e-17 0)
(-1 -2.40018e-14 0)
(-1 4.61505e-15 0)
(-1 -1.03427e-15 0)
(-1 2.71242e-16 0)
(-1 9.98258e-17 0)
(-1 1.164e-16 0)
(-1 6.43017e-17 0)
(-1 -4.09094e-17 0)
(-1 -1.78103e-16 0)
(-1 -1.90723e-16 0)
(-1 -9.36805e-17 0)
(-1 -1.84769e-16 0)
(-1 -1.48075e-17 0)
(-1 2.51035e-17 0)
(-1 -7.94691e-17 0)
(-1 -1.18101e-16 0)
(-1 -4.7801e-17 0)
(-1 -1.47433e-17 0)
(-1 3.07474e-18 0)
(-1 4.48092e-17 0)
(-1 6.77412e-16 0)
(-1 -5.55418e-16 0)
(-1 -3.38897e-17 0)
(-1 -8.27686e-17 0)
(-1 2.45699e-17 0)
(-1 -9.85588e-18 0)
(-1 -7.6889e-17 0)
(-1 -9.10439e-17 0)
(-1 -9.95556e-17 0)
(-1 -1.00892e-16 0)
(-1 -6.82557e-17 0)
(-1 -9.36025e-17 0)
(-1 -5.39678e-18 0)
(-1 1.24255e-17 0)
(-1 -8.8954e-17 0)
(-1 -7.75047e-17 0)
(-1 2.0493e-17 0)
(-1 4.32193e-18 0)
(-1 -8.83279e-18 0)
(-1 3.05967e-17 0)
)
;

boundaryField
{
    movingWall
    {
        type            fixedValue;
        value           uniform (-1 -0 -0);
    }
    fixedWalls
    {
        type            calculated;
        value           nonuniform List<vector> 
60
(
(-1 1.44782e-14 0)
(-1 1.02257e-15 0)
(-1 -8.9049e-15 0)
(-1 7.09095e-15 0)
(-1 -3.96674e-15 0)
(-1 -2.49939e-15 0)
(-1 7.1016e-15 0)
(-1 -5.44854e-16 0)
(-1 -8.07931e-15 0)
(-1 6.5018e-15 0)
(-1 -3.05698e-16 0)
(-1 -2.37514e-15 0)
(-1 1.52816e-15 0)
(-1 -1.38999e-15 0)
(-1 6.40736e-15 0)
(-1 -9.44713e-15 0)
(-1 5.83409e-15 0)
(-1 6.40272e-15 0)
(-1 -9.60071e-15 0)
(-1 2.70965e-16 0)
(-1 -9.08548e-18 0)
(-1 -1.74228e-17 0)
(-1 -7.5422e-18 0)
(-1 -7.60732e-19 0)
(-1 -9.4589e-18 0)
(-1 -2.35323e-17 0)
(-1 -3.08032e-18 0)
(-1 5.58978e-18 0)
(-1 -2.03149e-17 0)
(-1 -3.2949e-17 0)
(-1 -6.17211e-18 0)
(-1 1.36631e-17 0)
(-1 -2.88298e-18 0)
(-1 -9.73633e-18 0)
(-1 -4.1896e-18 0)
(-1 -2.35059e-17 0)
(-1 -2.70474e-17 0)
(-1 4.71873e-18 0)
(-1 1.79237e-17 0)
(-1 1.22387e-17 0)
(-1 1.44782e-14 0)
(-1 -2.53825e-15 0)
(-1 6.34969e-16 0)
(-1 -9.83182e-17 0)
(-1 3.27109e-17 0)
(-1 2.74257e-17 0)
(-1 2.2191e-17 0)
(-1 6.15644e-18 0)
(-1 -1.72009e-17 0)
(-1 -7.28401e-18 0)
(-1 2.51844e-18 0)
(-1 1.56627e-17 0)
(-1 2.17714e-18 0)
(-1 1.28646e-17 0)
(-1 -6.3195e-20 0)
(-1 -1.68486e-18 0)
(-1 2.23769e-17 0)
(-1 5.42781e-17 0)
(-1 3.87638e-17 0)
(-1 -9.08548e-18 0)
)
;
    }
    frontAndBack
    {
        type            empty;
    }
}


// ************************************************************************* //
