/*--------------------------------*- C++ -*----------------------------------*\
| =========                 |                                                 |
| \\      /  F ield         | OpenFOAM: The Open Source CFD Toolbox           |
|  \\    /   O peration     | Version:  2506                                  |
|   \\  /    A nd           | Website:  www.openfoam.com                      |
|    \\/     M anipulation  |                                                 |
\*---------------------------------------------------------------------------*/
FoamFile
{
    version     2.0;
    format      ascii;
    arch        "LSB;label=32;scalar=64";
    class       volVectorField;
    location    "7.875";
    object      vorticityField;
}
// * * * * * * * * * * * * * * * * * * * * * * * * * * * * * * * * * * * * * //

dimensions      [0 0 -1 0 0 0 0];

internalField   nonuniform List<vector> 
400
(
(0 -0 3.60839e-12)
(0 -0 -3.56922e-12)
(0 -0 6.91298e-13)
(0 -0 -2.3188e-13)
(0 -0 4.33091e-15)
(0 -0 -2.62996e-15)
(0 -0 -5.31731e-15)
(0 -0 -3.6953e-14)
(0 -0 -3.36011e-15)
(0 -0 -2.21752e-14)
(0 -0 -4.84734e-14)
(0 -0 -8.53251e-17)
(0 -0 -2.78046e-14)
(0 -0 -5.47702e-14)
(0 -0 -5.78475e-14)
(0 -0 5.61003e-15)
(0 -0 1.39908e-14)
(0 -0 4.09672e-15)
(0 -0 -1.58409e-14)
(0 -0 -7.41958e-15)
(0 -0 1.54755e-13)
(0 -0 -2.18712e-13)
(0 -0 1.4492e-14)
(0 -0 1.37334e-14)
(0 -0 9.16313e-14)
(0 -0 8.76395e-14)
(0 -0 7.29073e-14)
(0 -0 6.96546e-14)
(0 -0 5.2273e-14)
(0 -0 8.59595e-14)
(0 -0 1.1068e-13)
(0 -0 5.66018e-14)
(0 -0 9.14108e-14)
(0 -0 1.23595e-13)
(0 -0 6.16886e-14)
(0 -0 4.90096e-14)
(0 -0 4.26242e-14)
(0 -0 4.63883e-14)
(0 -0 -7.49417e-15)
(0 -0 4.04923e-15)
(0 -0 -2.90645e-12)
(0 -0 2.18877e-12)
(0 -0 -5.1298e-13)
(0 -0 1.29329e-13)
(0 -0 -1.55341e-13)
(0 -0 -9.79446e-14)
(0 -0 -1.00956e-13)
(0 -0 -8.14893e-14)
(0 -0 -4.68449e-14)
(0 -0 -5.38105e-14)
(0 -0 -8.97889e-14)
(0 -0 -8.38332e-14)
(0 -0 -4.48715e-14)
(0 -0 -4.18508e-14)
(0 -0 1.0056e-14)
(0 -0 -5.63501e-14)
(0 -0 -9.26179e-14)
(0 -0 -6.00372e-14)
(0 -0 -2.30403e-14)
(0 -0 5.86029e-15)
(0 -0 1.9668e-12)
(0 -0 -1.61283e-12)
(0 -0 3.84064e-13)
(0 -0 -1.25585e-13)
(0 -0 -4.96449e-14)
(0 -0 -1.77486e-13)
(0 -0 -1.64975e-13)
(0 -0 -3.01971e-14)
(0 -0 -4.7607e-14)
(0 -0 -2.3198e-14)
(0 -0 -2.50432e-14)
(0 -0 7.97691e-15)
(0 -0 9.40298e-15)
(0 -0 -5.80154e-14)
(0 -0 -6.12324e-14)
(0 -0 -2.75969e-14)
(0 -0 3.51649e-14)
(0 -0 8.63402e-15)
(0 -0 2.37759e-14)
(0 -0 -5.30378e-15)
(0 -0 -8.32036e-13)
(0 -0 1.03472e-12)
(0 -0 -2.67932e-13)
(0 -0 2.3849e-14)
(0 -0 5.64132e-14)
(0 -0 1.07471e-13)
(0 -0 6.43128e-14)
(0 -0 -6.40741e-15)
(0 -0 -3.78111e-14)
(0 -0 -3.18724e-14)
(0 -0 3.15045e-14)
(0 -0 -1.53221e-15)
(0 -0 5.05871e-14)
(0 -0 5.6621e-14)
(0 -0 2.95195e-14)
(0 -0 3.00712e-14)
(0 -0 5.57458e-14)
(0 -0 5.11468e-14)
(0 -0 -8.8283e-15)
(0 -0 1.03023e-15)
(0 -0 -4.33525e-13)
(0 -0 4.45046e-13)
(0 -0 -1.28968e-13)
(0 -0 6.72973e-14)
(0 -0 6.29481e-14)
(0 -0 1.44696e-13)
(0 -0 1.64077e-13)
(0 -0 1.2779e-13)
(0 -0 1.39568e-13)
(0 -0 2.3092e-14)
(0 -0 2.28748e-14)
(0 -0 -2.90151e-14)
(0 -0 -1.12513e-13)
(0 -0 8.47138e-15)
(0 -0 4.1772e-14)
(0 -0 2.46366e-15)
(0 -0 -5.19279e-14)
(0 -0 -6.08812e-14)
(0 -0 -9.77503e-15)
(0 -0 1.01906e-14)
(0 -0 1.03039e-12)
(0 -0 -1.50026e-12)
(0 -0 3.99004e-13)
(0 -0 2.60917e-15)
(0 -0 1.66039e-13)
(0 -0 1.44309e-14)
(0 -0 -1.88259e-14)
(0 -0 8.62298e-14)
(0 -0 1.00579e-13)
(0 -0 1.27459e-13)
(0 -0 9.46844e-14)
(0 -0 1.02203e-13)
(0 -0 5.81981e-14)
(0 -0 4.97444e-14)
(0 -0 5.98026e-14)
(0 -0 -9.08248e-15)
(0 -0 -1.08097e-14)
(0 -0 -2.3489e-15)
(0 -0 3.98764e-15)
(0 -0 -2.21991e-14)
(0 -0 -2.55563e-13)
(0 -0 2.0225e-13)
(0 -0 -3.27997e-14)
(0 -0 -2.28684e-14)
(0 -0 -7.93084e-14)
(0 -0 -3.15057e-14)
(0 -0 -8.61232e-14)
(0 -0 -9.06015e-14)
(0 -0 -9.14318e-14)
(0 -0 -3.09642e-14)
(0 -0 -2.81255e-14)
(0 -0 -3.08094e-14)
(0 -0 -7.16759e-15)
(0 -0 -6.16333e-14)
(0 -0 -5.41937e-14)
(0 -0 -2.4915e-14)
(0 -0 -2.81403e-14)
(0 -0 6.47149e-15)
(0 -0 -1.40639e-14)
(0 -0 2.96569e-14)
(0 -0 -1.34389e-12)
(0 -0 1.74546e-12)
(0 -0 -4.75229e-13)
(0 -0 -1.99576e-14)
(0 -0 -1.82108e-13)
(0 -0 -1.05176e-13)
(0 -0 -5.89775e-15)
(0 -0 -1.07389e-13)
(0 -0 -8.93027e-14)
(0 -0 -8.88689e-14)
(0 -0 -7.85243e-14)
(0 -0 -1.40175e-13)
(0 -0 -8.20991e-14)
(0 -0 2.19971e-14)
(0 -0 6.17364e-14)
(0 -0 2.89439e-14)
(0 -0 3.67047e-14)
(0 -0 7.64677e-15)
(0 -0 2.52869e-14)
(0 -0 4.7951e-15)
(0 -0 2.0521e-12)
(0 -0 -1.71564e-12)
(0 -0 4.02969e-13)
(0 -0 -1.20381e-14)
(0 -0 7.30135e-14)
(0 -0 6.46573e-14)
(0 -0 1.13754e-13)
(0 -0 4.85955e-14)
(0 -0 2.87736e-14)
(0 -0 2.6104e-14)
(0 -0 3.9087e-14)
(0 -0 -1.31261e-14)
(0 -0 -3.31859e-14)
(0 -0 -9.79379e-15)
(0 -0 -6.7081e-14)
(0 -0 -5.24438e-14)
(0 -0 1.52181e-14)
(0 -0 7.72322e-15)
(0 -0 -4.55471e-15)
(0 -0 1.16475e-14)
(0 -0 -3.43629e-13)
(0 -0 2.61309e-13)
(0 -0 3.40154e-14)
(0 -0 6.7697e-14)
(0 -0 1.17934e-13)
(0 -0 9.43808e-14)
(0 -0 -3.69128e-15)
(0 -0 -4.17759e-14)
(0 -0 -4.96467e-14)
(0 -0 -7.59461e-14)
(0 -0 -1.09651e-13)
(0 -0 1.97369e-14)
(0 -0 2.39565e-14)
(0 -0 -8.83147e-14)
(0 -0 -6.42025e-14)
(0 -0 2.13357e-14)
(0 -0 1.53042e-14)
(0 -0 -5.4175e-14)
(0 -0 3.487e-15)
(0 -0 9.24559e-15)
(0 -0 1.21961e-13)
(0 -0 6.36221e-13)
(0 -0 -1.49578e-13)
(0 -0 1.61018e-14)
(0 -0 -2.593e-14)
(0 -0 -8.22862e-15)
(0 -0 2.01421e-15)
(0 -0 1.12898e-13)
(0 -0 7.89722e-14)
(0 -0 4.74904e-14)
(0 -0 1.03423e-13)
(0 -0 5.43648e-14)
(0 -0 2.55165e-14)
(0 -0 5.11421e-14)
(0 -0 5.82016e-14)
(0 -0 1.20104e-13)
(0 -0 9.28193e-14)
(0 -0 6.11159e-14)
(0 -0 -3.30126e-15)
(0 -0 -1.29499e-14)
(0 -0 1.55119e-13)
(0 -0 -4.9437e-13)
(0 -0 1.69191e-14)
(0 -0 -1.02983e-13)
(0 -0 -4.90558e-14)
(0 -0 -4.69725e-14)
(0 -0 1.42094e-15)
(0 -0 -1.50554e-14)
(0 -0 3.35195e-14)
(0 -0 5.16801e-14)
(0 -0 -6.6093e-17)
(0 -0 5.74608e-14)
(0 -0 -5.20043e-14)
(0 -0 2.19874e-15)
(0 -0 -2.75755e-15)
(0 -0 -6.48885e-14)
(0 -0 -8.54449e-14)
(0 -0 6.98078e-14)
(0 -0 1.13042e-14)
(0 -0 -8.28158e-16)
(0 -0 -1.29536e-12)
(0 -0 4.99978e-13)
(0 -0 -1.69963e-13)
(0 -0 2.46919e-14)
(0 -0 -9.28395e-14)
(0 -0 -1.2736e-13)
(0 -0 -1.22678e-13)
(0 -0 -1.14047e-13)
(0 -0 -1.55659e-13)
(0 -0 -1.28307e-13)
(0 -0 -1.05939e-13)
(0 -0 -9.1875e-14)
(0 -0 8.88542e-15)
(0 -0 -4.98689e-14)
(0 -0 9.74444e-15)
(0 -0 2.77816e-15)
(0 -0 -8.41135e-16)
(0 -0 -5.19147e-14)
(0 -0 2.62209e-15)
(0 -0 6.38687e-15)
(0 -0 2.75845e-12)
(0 -0 -1.78271e-12)
(0 -0 4.06257e-13)
(0 -0 -8.43321e-14)
(0 -0 3.25081e-14)
(0 -0 3.23511e-14)
(0 -0 1.84726e-14)
(0 -0 3.38999e-14)
(0 -0 3.03765e-14)
(0 -0 -1.16022e-15)
(0 -0 1.18415e-16)
(0 -0 1.91827e-15)
(0 -0 3.13076e-15)
(0 -0 2.88184e-14)
(0 -0 1.04136e-15)
(0 -0 7.73249e-15)
(0 -0 1.00083e-14)
(0 -0 2.99456e-15)
(0 -0 4.80509e-14)
(0 -0 -2.93262e-15)
(0 -0 -2.99489e-12)
(0 -0 2.38385e-12)
(0 -0 -5.85317e-13)
(0 -0 5.8981e-14)
(0 -0 -9.15175e-14)
(0 -0 -7.34213e-14)
(0 -0 -5.21464e-14)
(0 -0 -4.64646e-14)
(0 -0 3.91674e-14)
(0 -0 8.44427e-14)
(0 -0 1.32457e-13)
(0 -0 6.0459e-14)
(0 -0 5.19639e-14)
(0 -0 2.93596e-14)
(0 -0 6.1846e-14)
(0 -0 6.35911e-14)
(0 -0 5.05106e-14)
(0 -0 -1.52261e-14)
(0 -0 -6.39403e-14)
(0 -0 -1.52783e-14)
(0 -0 8.09789e-13)
(0 -0 -1.27572e-12)
(0 -0 3.38246e-13)
(0 -0 -7.04046e-14)
(0 -0 8.60032e-15)
(0 -0 -1.5966e-14)
(0 -0 -1.9343e-14)
(0 -0 2.20931e-14)
(0 -0 2.21313e-14)
(0 -0 7.48035e-14)
(0 -0 3.65283e-14)
(0 -0 4.68443e-14)
(0 -0 4.15806e-14)
(0 -0 6.15784e-14)
(0 -0 3.74015e-14)
(0 -0 2.61751e-15)
(0 -0 -4.71472e-15)
(0 -0 -4.34401e-14)
(0 -0 -8.19493e-15)
(0 -0 1.68816e-14)
(0 -0 1.90928e-12)
(0 -0 -1.52863e-12)
(0 -0 3.87544e-13)
(0 -0 -1.55998e-14)
(0 -0 1.17049e-13)
(0 -0 1.0757e-13)
(0 -0 5.02292e-14)
(0 -0 1.05945e-13)
(0 -0 6.406e-14)
(0 -0 8.93801e-15)
(0 -0 -8.80882e-14)
(0 -0 -6.46774e-14)
(0 -0 -8.05045e-14)
(0 -0 -4.97849e-14)
(0 -0 -3.55436e-14)
(0 -0 -1.20447e-13)
(0 -0 -1.06778e-13)
(0 -0 8.49928e-15)
(0 -0 -1.90767e-14)
(0 -0 5.34417e-16)
(0 -0 -2.69761e-12)
(0 -0 2.37807e-12)
(0 -0 -5.42801e-13)
(0 -0 1.13409e-13)
(0 -0 -9.67994e-14)
(0 -0 -5.77625e-14)
(0 -0 -6.99411e-14)
(0 -0 -1.59766e-13)
(0 -0 -1.23402e-13)
(0 -0 -4.57678e-14)
(0 -0 -5.36147e-14)
(0 -0 7.8873e-15)
(0 -0 2.09873e-14)
(0 -0 -6.46615e-15)
(0 -0 -6.85306e-14)
(0 -0 3.02719e-14)
(0 -0 6.45459e-14)
(0 -0 3.21926e-14)
(0 -0 3.30603e-14)
(0 -0 2.23167e-14)
(0 -0 6.89826e-13)
(0 -0 -2.06655e-13)
(0 -0 1.01475e-13)
(0 -0 5.84596e-15)
(0 -0 3.43963e-14)
(0 -0 -1.01459e-14)
(0 -0 4.60913e-14)
(0 -0 5.19435e-14)
(0 -0 5.32253e-14)
(0 -0 3.12999e-15)
(0 -0 5.4939e-14)
(0 -0 6.28589e-15)
(0 -0 3.77078e-14)
(0 -0 -8.35572e-15)
(0 -0 -8.99301e-15)
(0 -0 3.80498e-14)
(0 -0 8.18266e-15)
(0 -0 -2.93258e-15)
(0 -0 2.62747e-15)
(0 -0 -2.17639e-15)
)
;

boundaryField
{
    movingWall
    {
        type            calculated;
        value           nonuniform List<vector> 
20
(
(0 -0 1.07801e-12)
(0 -0 -2.67212e-14)
(0 -0 3.13718e-13)
(0 -0 1.83482e-13)
(0 -0 2.73745e-13)
(0 -0 2.11899e-13)
(0 -0 2.58335e-13)
(0 -0 3.08596e-13)
(0 -0 2.2106e-13)
(0 -0 1.80766e-13)
(0 -0 1.33956e-13)
(0 -0 5.06948e-14)
(0 -0 1.06028e-14)
(0 -0 -8.35572e-15)
(0 -0 -8.99301e-15)
(0 -0 1.09447e-14)
(0 -0 -8.06352e-14)
(0 -0 -2.93258e-15)
(0 -0 2.62747e-15)
(0 -0 -2.17639e-15)
)
;
    }
    fixedWalls
    {
        type            calculated;
        value           nonuniform List<vector> 
60
(
(0 -0 1.51016e-11)
(0 -0 9.41259e-13)
(0 -0 -9.962e-12)
(0 -0 7.60595e-12)
(0 -0 -4.04806e-12)
(0 -0 -2.41807e-12)
(0 -0 6.72213e-12)
(0 -0 -6.80379e-13)
(0 -0 -7.86247e-12)
(0 -0 7.20653e-12)
(0 -0 -6.30959e-13)
(0 -0 -1.83303e-12)
(0 -0 1.39264e-12)
(0 -0 -2.41998e-12)
(0 -0 7.84393e-12)
(0 -0 -1.05313e-11)
(0 -0 5.50882e-12)
(0 -0 6.99903e-12)
(0 -0 -1.03596e-11)
(0 -0 9.48591e-13)
(0 -0 9.08548e-15)
(0 -0 1.74228e-14)
(0 -0 7.5422e-15)
(0 -0 7.60732e-16)
(0 -0 9.4589e-15)
(0 -0 2.35323e-14)
(0 -0 -2.40247e-14)
(0 -0 2.15153e-14)
(0 -0 2.03149e-14)
(0 -0 3.2949e-14)
(0 -0 6.17211e-15)
(0 -0 -1.36631e-14)
(0 -0 2.88298e-15)
(0 -0 9.73633e-15)
(0 -0 4.1896e-15)
(0 -0 -3.59913e-15)
(0 -0 2.70474e-14)
(0 -0 -4.71873e-15)
(0 -0 9.18137e-15)
(0 -0 -1.22387e-14)
(0 -0 9.86577e-13)
(0 -0 -3.50521e-12)
(0 -0 2.54712e-13)
(0 -0 -3.72609e-13)
(0 -0 -1.462e-13)
(0 -0 -1.35857e-13)
(0 -0 -1.82953e-13)
(0 -0 -1.43075e-13)
(0 -0 -9.2178e-14)
(0 -0 -1.28297e-13)
(0 -0 -2.60717e-13)
(0 -0 -1.77721e-13)
(0 -0 -1.78335e-13)
(0 -0 -2.22605e-13)
(0 -0 -1.36864e-13)
(0 -0 -3.87989e-14)
(0 -0 -1.19236e-13)
(0 -0 -8.47211e-14)
(0 -0 -6.02498e-14)
(0 -0 -7.41958e-15)
)
;
    }
    frontAndBack
    {
        type            empty;
    }
}


// ************************************************************************* //
