/*--------------------------------*- C++ -*----------------------------------*\
| =========                 |                                                 |
| \\      /  F ield         | OpenFOAM: The Open Source CFD Toolbox           |
|  \\    /   O peration     | Version:  2506                                  |
|   \\  /    A nd           | Website:  www.openfoam.com                      |
|    \\/     M anipulation  |                                                 |
\*---------------------------------------------------------------------------*/
FoamFile
{
    version     2.0;
    format      ascii;
    arch        "LSB;label=32;scalar=64";
    class       volScalarField;
    location    "7.875";
    object      zeroGradient(epsilon);
}
// * * * * * * * * * * * * * * * * * * * * * * * * * * * * * * * * * * * * * //

dimensions      [0 2 -3 0 0 0 0];

internalField   nonuniform List<scalar> 
400
(
1.42104e-06
1.42104e-06
1.42104e-06
1.42104e-06
1.42104e-06
1.42104e-06
1.42104e-06
1.42104e-06
1.42104e-06
1.42103e-06
1.42104e-06
1.42103e-06
1.42103e-06
1.42103e-06
1.42103e-06
1.42103e-06
1.42103e-06
1.42103e-06
1.42103e-06
1.42103e-06
1.46863e-06
1.45038e-06
1.45191e-06
1.45255e-06
1.45384e-06
1.45449e-06
1.45577e-06
1.45645e-06
1.45773e-06
1.45842e-06
1.4597e-06
1.46042e-06
1.4617e-06
1.46244e-06
1.46372e-06
1.46447e-06
1.46576e-06
1.46653e-06
1.46718e-06
1.46821e-06
1.54344e-06
1.52361e-06
1.5253e-06
1.52601e-06
1.52742e-06
1.52813e-06
1.52954e-06
1.53027e-06
1.53168e-06
1.53243e-06
1.53382e-06
1.53459e-06
1.53599e-06
1.53677e-06
1.53817e-06
1.53896e-06
1.54036e-06
1.54116e-06
1.54187e-06
1.54298e-06
1.62125e-06
1.60007e-06
1.60188e-06
1.60264e-06
1.60414e-06
1.60491e-06
1.60641e-06
1.60719e-06
1.60869e-06
1.60949e-06
1.61098e-06
1.6118e-06
1.61329e-06
1.61413e-06
1.61561e-06
1.61646e-06
1.61796e-06
1.61882e-06
1.61957e-06
1.62075e-06
1.68585e-06
1.66352e-06
1.66543e-06
1.66622e-06
1.66781e-06
1.66861e-06
1.67019e-06
1.67102e-06
1.67259e-06
1.67344e-06
1.67501e-06
1.67588e-06
1.67744e-06
1.67833e-06
1.67989e-06
1.68079e-06
1.68236e-06
1.68327e-06
1.68406e-06
1.68531e-06
1.73225e-06
1.70908e-06
1.71106e-06
1.71188e-06
1.71353e-06
1.71436e-06
1.716e-06
1.71685e-06
1.71849e-06
1.71937e-06
1.721e-06
1.7219e-06
1.72352e-06
1.72444e-06
1.72607e-06
1.727e-06
1.72863e-06
1.72957e-06
1.73039e-06
1.73168e-06
1.76271e-06
1.73899e-06
1.74101e-06
1.74186e-06
1.74354e-06
1.74439e-06
1.74608e-06
1.74695e-06
1.74862e-06
1.74952e-06
1.75119e-06
1.75211e-06
1.75377e-06
1.75471e-06
1.75638e-06
1.75733e-06
1.759e-06
1.75997e-06
1.76081e-06
1.76213e-06
1.78195e-06
1.75788e-06
1.75993e-06
1.76079e-06
1.76249e-06
1.76336e-06
1.76507e-06
1.76595e-06
1.76765e-06
1.76856e-06
1.77026e-06
1.77119e-06
1.77288e-06
1.77383e-06
1.77552e-06
1.77649e-06
1.77818e-06
1.77916e-06
1.78002e-06
1.78136e-06
1.79433e-06
1.77003e-06
1.7721e-06
1.77297e-06
1.77469e-06
1.77556e-06
1.77729e-06
1.77818e-06
1.7799e-06
1.78082e-06
1.78253e-06
1.78347e-06
1.78517e-06
1.78614e-06
1.78784e-06
1.78882e-06
1.79053e-06
1.79152e-06
1.79238e-06
1.79373e-06
1.80299e-06
1.77853e-06
1.78061e-06
1.78149e-06
1.78322e-06
1.7841e-06
1.78583e-06
1.78673e-06
1.78846e-06
1.78939e-06
1.79111e-06
1.79206e-06
1.79377e-06
1.79474e-06
1.79646e-06
1.79744e-06
1.79916e-06
1.80016e-06
1.80102e-06
1.80239e-06
1.8099e-06
1.78531e-06
1.78741e-06
1.78829e-06
1.79003e-06
1.79091e-06
1.79265e-06
1.79356e-06
1.79529e-06
1.79622e-06
1.79795e-06
1.79891e-06
1.80063e-06
1.80161e-06
1.80333e-06
1.80432e-06
1.80605e-06
1.80705e-06
1.80792e-06
1.80929e-06
1.81621e-06
1.79151e-06
1.79361e-06
1.7945e-06
1.79625e-06
1.79713e-06
1.79888e-06
1.79979e-06
1.80154e-06
1.80247e-06
1.80421e-06
1.80517e-06
1.8069e-06
1.80788e-06
1.80961e-06
1.8106e-06
1.81234e-06
1.81335e-06
1.81422e-06
1.8156e-06
1.82259e-06
1.79777e-06
1.79989e-06
1.80077e-06
1.80253e-06
1.80342e-06
1.80518e-06
1.8061e-06
1.80785e-06
1.80879e-06
1.81053e-06
1.8115e-06
1.81323e-06
1.81422e-06
1.81596e-06
1.81696e-06
1.8187e-06
1.81971e-06
1.82059e-06
1.82198e-06
1.82942e-06
1.80447e-06
1.8066e-06
1.80749e-06
1.80926e-06
1.81015e-06
1.81192e-06
1.81284e-06
1.8146e-06
1.81554e-06
1.8173e-06
1.81826e-06
1.82001e-06
1.821e-06
1.82275e-06
1.82375e-06
1.82551e-06
1.82652e-06
1.82741e-06
1.8288e-06
1.83687e-06
1.81179e-06
1.81392e-06
1.81482e-06
1.81659e-06
1.81749e-06
1.81927e-06
1.82019e-06
1.82197e-06
1.82291e-06
1.82468e-06
1.82565e-06
1.82741e-06
1.8284e-06
1.83016e-06
1.83117e-06
1.83293e-06
1.83395e-06
1.83484e-06
1.83624e-06
1.84489e-06
1.81966e-06
1.82181e-06
1.82271e-06
1.8245e-06
1.8254e-06
1.82719e-06
1.82812e-06
1.8299e-06
1.83085e-06
1.83263e-06
1.8336e-06
1.83537e-06
1.83637e-06
1.83814e-06
1.83916e-06
1.84093e-06
1.84196e-06
1.84285e-06
1.84426e-06
1.85312e-06
1.82774e-06
1.82991e-06
1.83081e-06
1.83261e-06
1.83352e-06
1.83532e-06
1.83625e-06
1.83804e-06
1.839e-06
1.84079e-06
1.84177e-06
1.84355e-06
1.84455e-06
1.84633e-06
1.84735e-06
1.84914e-06
1.85017e-06
1.85107e-06
1.85249e-06
1.86082e-06
1.83531e-06
1.83748e-06
1.83839e-06
1.8402e-06
1.84112e-06
1.84292e-06
1.84386e-06
1.84566e-06
1.84663e-06
1.84842e-06
1.84941e-06
1.8512e-06
1.85221e-06
1.854e-06
1.85502e-06
1.85682e-06
1.85786e-06
1.85876e-06
1.86018e-06
1.86691e-06
1.84178e-06
1.84388e-06
1.84476e-06
1.84652e-06
1.84741e-06
1.84918e-06
1.8501e-06
1.85186e-06
1.85282e-06
1.85457e-06
1.85556e-06
1.85731e-06
1.85833e-06
1.86009e-06
1.86113e-06
1.8629e-06
1.86396e-06
1.86486e-06
1.86628e-06
1.8697e-06
1.8697e-06
1.8697e-06
1.8697e-06
1.86969e-06
1.86969e-06
1.86969e-06
1.86969e-06
1.86969e-06
1.86969e-06
1.86969e-06
1.86969e-06
1.86969e-06
1.86969e-06
1.86969e-06
1.86969e-06
1.86969e-06
1.86969e-06
1.86969e-06
1.86969e-06
)
;

boundaryField
{
    movingWall
    {
        type            zeroGradient;
    }
    fixedWalls
    {
        type            zeroGradient;
    }
    frontAndBack
    {
        type            empty;
    }
}


// ************************************************************************* //
