/*--------------------------------*- C++ -*----------------------------------*\
| =========                 |                                                 |
| \\      /  F ield         | OpenFOAM: The Open Source CFD Toolbox           |
|  \\    /   O peration     | Version:  2506                                  |
|   \\  /    A nd           | Website:  www.openfoam.com                      |
|    \\/     M anipulation  |                                                 |
\*---------------------------------------------------------------------------*/
FoamFile
{
    version     2.0;
    format      ascii;
    arch        "LSB;label=32;scalar=64";
    class       volScalarField;
    location    "1.175";
    object      p;
}
// * * * * * * * * * * * * * * * * * * * * * * * * * * * * * * * * * * * * * //

dimensions      [0 2 -2 0 0 0 0];

internalField   nonuniform List<scalar> 
6400
(
-3.21777e-08
-9.67524e-07
-5.58875e-05
-0.000164003
-0.000312071
-0.00048735
-0.000678952
-0.000877699
-0.00107611
-0.00126823
-0.00144935
-0.00161583
-0.00176484
-0.00189426
-0.00200251
-0.00208843
-0.00215122
-0.00219032
-0.00220535
-0.00219607
-0.00216237
-0.00210418
-0.00202154
-0.0019145
-0.00178317
-0.00162773
-0.00144839
-0.00124547
-0.00101936
-0.000770523
-0.00049957
-0.000207235
0.000105557
0.000437712
0.000787952
0.0011548
0.00153659
0.00193141
0.00233711
0.00275133
0.00317152
0.00359492
0.00401858
0.00443941
0.00485417
0.00525954
0.00565213
0.00602856
0.00638548
0.00671963
0.0070279
0.00730736
0.00755534
0.00776948
0.00794776
0.00808859
0.00819082
0.0082538
0.00827736
0.00826191
0.00820838
0.00811831
0.00799378
0.00783742
0.00765245
0.00744258
0.00721206
0.0069656
0.00670838
0.00644602
0.00618455
0.00593038
0.0056903
0.00547142
0.00528107
0.00512655
0.00501453
0.00495021
0.00493616
0.0049608
7.31528e-06
6.21749e-06
-4.25019e-05
-0.000134114
-0.000257701
-0.000404316
-0.000565742
-0.000734551
-0.000904398
-0.00107
-0.00122706
-0.0013721
-0.00150239
-0.00161577
-0.00171058
-0.00178556
-0.00183978
-0.00187256
-0.00188341
-0.00187198
-0.00183806
-0.00178153
-0.00170233
-0.00160047
-0.00147603
-0.00132915
-0.00116003
-0.000968966
-0.000756341
-0.000522619
-0.000268381
5.65415e-06
0.000298589
0.000609366
0.000936773
0.00127941
0.00163569
0.00200381
0.00238177
0.00276735
0.00315818
0.0035517
0.00394518
0.00433576
0.00472048
0.00509626
0.00546002
0.00580867
0.00613914
0.00644849
0.00673389
0.0069927
0.00722252
0.00742123
0.00758706
0.00771861
0.00781489
0.00787537
0.00789998
0.00788916
0.00784385
0.00776551
0.00765613
0.00751818
0.00735467
0.00716904
0.00696521
0.00674752
0.0065207
0.00628984
0.00606034
0.00583787
0.00562835
0.00543779
0.00527218
0.00513725
0.00503776
0.00497731
0.00496052
0.00498535
7.17884e-05
6.23108e-05
1.20093e-05
-7.31557e-05
-0.000184278
-0.000314478
-0.00045726
-0.000606547
-0.000756965
-0.000903921
-0.00104358
-0.00117278
-0.00128894
-0.00139002
-0.00147438
-0.00154077
-0.00158823
-0.00161601
-0.00162357
-0.00161051
-0.00157656
-0.00152156
-0.00144538
-0.00134802
-0.00122951
-0.00108996
-0.00092956
-0.000748569
-0.000547342
-0.000326314
-8.60412e-05
0.000172782
0.000449305
0.000742522
0.00105128
0.00137425
0.00170994
0.00205663
0.00241245
0.0027753
0.00314295
0.00351299
0.00388288
0.00424993
0.00461136
0.00496433
0.00530594
0.0056333
0.00594358
0.00623404
0.00650205
0.00674518
0.00696122
0.00714822
0.00730456
0.00742898
0.00752059
0.00757896
0.00760406
0.00759634
0.00755675
0.00748669
0.00738807
0.00726323
0.00711499
0.00694661
0.00676175
0.00656443
0.00635902
0.00615017
0.00594281
0.00574203
0.00555306
0.00538114
0.00523142
0.00510873
0.00501702
0.00495959
0.00494332
0.00497175
0.00018968
0.000161267
0.000101565
1.4841e-05
-9.27019e-05
-0.000215411
-0.000347943
-0.000485309
-0.000623011
-0.000757136
-0.000884343
-0.00100184
-0.00110731
-0.00119889
-0.00127506
-0.00133464
-0.0013767
-0.00140051
-0.00140551
-0.00139129
-0.00135757
-0.00130414
-0.00123085
-0.00113766
-0.00102458
-0.000891689
-0.000739135
-0.000567151
-0.00037605
-0.000166234
6.17837e-05
0.000307351
0.000569667
0.000847793
0.00114064
0.00144695
0.00176532
0.00209412
0.00243157
0.00277571
0.0031244
0.00347537
0.00382621
0.00417439
0.00451727
0.00485213
0.00517626
0.00548691
0.00578141
0.00605714
0.00631164
0.00654261
0.00674796
0.00692586
0.0070748
0.00719359
0.00728142
0.00733789
0.00736302
0.00735727
0.00732154
0.00725721
0.0071661
0.00705045
0.00691295
0.00675668
0.00658509
0.00640194
0.00621132
0.00601752
0.00582507
0.00563861
0.00546285
0.00530247
0.00516206
0.00504595
0.00495777
0.00490084
0.00488283
0.00490905
0.000347449
0.000292257
0.000217232
0.00012374
1.4519e-05
-0.000105824
-0.000232879
-0.00036263
-0.00049142
-0.000616001
-0.000733563
-0.000841707
-0.000938438
-0.00102211
-0.00109139
-0.0011452
-0.00118269
-0.00120317
-0.00120612
-0.00119115
-0.00115795
-0.0011063
-0.00103603
-0.000947083
-0.000839435
-0.00071313
-0.000568282
-0.000405079
-0.000223785
-2.47612e-05
0.000191529
0.000424493
0.000673385
0.000937337
0.00121534
0.00150621
0.00180862
0.00212106
0.00244184
0.00276908
0.00310077
0.00343475
0.00376872
0.00410029
0.00442692
0.00474605
0.00505505
0.00535131
0.00563226
0.00589543
0.00613843
0.00635906
0.00655534
0.00672552
0.00686814
0.00698208
0.00706658
0.00712126
0.00714614
0.00714168
0.00710876
0.00704871
0.00696327
0.00685461
0.00672528
0.00657821
0.00641665
0.00624415
0.00606453
0.0058818
0.0057001
0.0055237
0.00535687
0.00520384
0.00506872
0.00495543
0.00486735
0.00480771
0.00478358
0.00479995
0.00053399
0.000447047
0.000352328
0.000247947
0.000132828
1.06706e-05
-0.000114893
-0.000240735
-0.000363969
-0.000481981
-0.000592486
-0.000693508
-0.000783389
-0.000860756
-0.000924476
-0.000973617
-0.00100743
-0.00102532
-0.00102682
-0.00101155
-0.000979228
-0.000929619
-0.000862558
-0.000777945
-0.000675744
-0.000555965
-0.000418671
-0.000264005
-9.21781e-05
9.6503e-05
0.000301624
0.000522662
0.000758946
0.00100968
0.00127392
0.00155059
0.00183845
0.00213606
0.00244183
0.00275399
0.00307062
0.00338965
0.00370892
0.0040261
0.00433878
0.00464447
0.00494065
0.00522479
0.00549442
0.00574712
0.00598059
0.0061927
0.00638152
0.00654535
0.00668277
0.00679268
0.00687435
0.00692739
0.00695183
0.00694812
0.00691709
0.00686003
0.00677862
0.00667492
0.0065514
0.00641084
0.00625633
0.00609123
0.00591912
0.00574376
0.005569
0.00539876
0.00523694
0.0050874
0.00495385
0.00483984
0.00474849
0.00468287
0.00464855
0.00464913
0.000739424
0.000617922
0.000500526
0.000382067
0.000257667
0.000130259
2.81382e-06
-0.000122325
-0.000242977
-0.000357122
-0.000462979
-0.000559003
-0.00064389
-0.000716547
-0.000776058
-0.000821672
-0.000852775
-0.000868877
-0.000869572
-0.000854533
-0.000823496
-0.000776237
-0.000712588
-0.000632434
-0.000535714
-0.000422399
-0.000292502
-0.00014611
1.66139e-05
0.000195424
0.000389973
0.000599804
0.000824326
0.00106282
0.00131445
0.0015782
0.00185292
0.00213728
0.00242975
0.00272866
0.00303219
0.00333835
0.00364507
0.0039501
0.00425111
0.00454568
0.00483136
0.00510567
0.00536618
0.00561054
0.00583648
0.00604191
0.00622492
0.00638382
0.00651721
0.00662399
0.00670341
0.00675509
0.00677902
0.00677563
0.00674571
0.0066905
0.00661161
0.00651104
0.00639114
0.00625459
0.00610434
0.0059436
0.00577574
0.0056043
0.00543289
0.00526516
0.0051047
0.00495505
0.00481958
0.00470151
0.00460376
0.00452916
0.00448131
0.00446198
0.000955028
0.000797629
0.000655657
0.000520844
0.000384627
0.000249305
0.000117301
-9.74339e-06
-0.000130287
-0.00024286
-0.000346163
-0.000439079
-0.000520653
-0.000590077
-0.000646666
-0.000689863
-0.000719212
-0.000734338
-0.000734913
-0.000720667
-0.000691371
-0.000646818
-0.000586844
-0.000511325
-0.000420167
-0.000313301
-0.000190691
-5.23666e-05
0.000101567
0.000270923
0.000455431
0.000654711
0.000868255
0.00109543
0.00133549
0.00158751
0.00185042
0.00212297
0.00240374
0.00269111
0.00298337
0.0032786
0.0035748
0.00386978
0.00416127
0.0044469
0.00472425
0.00499088
0.0052444
0.00548244
0.00570279
0.00590332
0.00608213
0.00623753
0.00636808
0.00647266
0.00655051
0.00660119
0.00662469
0.00662135
0.00659196
0.00653768
0.00646007
0.00636105
0.0062429
0.00610818
0.00595975
0.00580065
0.00563414
0.00546356
0.00529233
0.00512385
0.00496149
0.00480851
0.00466801
0.00454291
0.00443595
0.00434977
0.0042858
0.00424381
0.00117328
0.000979557
0.000811933
0.000659228
0.000509357
0.000364116
0.000225473
9.44422e-05
-2.80131e-05
-0.000140938
-0.000243494
-0.000334964
-0.00041473
-0.000482266
-0.00053714
-0.00057899
-0.000607524
-0.000622486
-0.00062364
-0.000610778
-0.000583715
-0.00054227
-0.000486285
-0.000415624
-0.000330162
-0.000229783
-0.000114401
1.60057e-05
0.000161397
0.000321656
0.000496587
0.000685899
0.000889172
0.00110587
0.00133531
0.00157669
0.00182902
0.00209111
0.00236164
0.00263908
0.00292177
0.00320789
0.00349546
0.00378236
0.00406636
0.00434511
0.00461621
0.00487723
0.00512577
0.00535948
0.0055761
0.0057735
0.00594973
0.00610305
0.006232
0.00633541
0.00641245
0.00646265
0.00648592
0.00648257
0.00645332
0.00639928
0.00632195
0.00622319
0.00610518
0.00597042
0.00582166
0.00566187
0.00549414
0.00532171
0.00514781
0.00497569
0.00480852
0.00464935
0.00450105
0.00436629
0.0042477
0.00414775
0.00406567
0.00399931
0.0013877
0.00115779
0.000964
0.000792418
0.000627613
0.000470974
0.000324099
0.000187445
6.14381e-05
-5.34475e-05
-0.000156797
-0.000248266
-0.000327561
-0.000394445
-0.000448728
-0.000490253
-0.000518884
-0.000534488
-0.000536927
-0.000526065
-0.000501763
-0.000463868
-0.000412231
-0.000346698
-0.000267112
-0.000173308
-6.51541e-05
5.74266e-05
0.000194462
0.000345915
0.000511673
0.000691532
0.000885165
0.00109213
0.00131185
0.00154359
0.00178645
0.00203934
0.002301
0.00257
0.00284474
0.00312344
0.00340418
0.00368488
0.00396332
0.00423717
0.00450402
0.00476143
0.00500699
0.0052383
0.00545306
0.00564908
0.00582437
0.00597712
0.00610579
0.00620914
0.00628626
0.00633662
0.00636005
0.0063568
0.00632753
0.00627327
0.00619546
0.0060959
0.00597671
0.00584031
0.0056894
0.00552683
0.00535564
0.00517893
0.00499985
0.0048215
0.00464691
0.00447897
0.0043204
0.00417367
0.00404135
0.0039258
0.00382415
0.00373232
0.00159259
0.00132697
0.00110689
0.000915869
0.000735293
0.000566209
0.000409914
0.000266359
0.000135479
1.73076e-05
-8.81295e-05
-0.000180841
-0.00026085
-0.000328204
-0.000382942
-0.000425103
-0.000454707
-0.000471749
-0.000476188
-0.000467959
-0.000446975
-0.000413113
-0.000366227
-0.000306137
-0.000232651
-0.000145572
-4.47117e-05
7.00701e-05
0.000198875
0.000341744
0.000498655
0.000669498
0.000854047
0.00105195
0.00126273
0.00148574
0.00172016
0.00196501
0.00221908
0.00248103
0.00274931
0.00302221
0.00329783
0.00357412
0.00384885
0.0041197
0.00438424
0.00464001
0.00488454
0.00511538
0.00533015
0.00552662
0.00570267
0.00585641
0.00598621
0.00609074
0.00616898
0.00622031
0.00624447
0.00624165
0.00621239
0.00615768
0.00607889
0.00597773
0.00585629
0.00571694
0.00556229
0.00539516
0.00521852
0.0050354
0.00484888
0.00466197
0.00447762
0.00429863
0.00412757
0.0039668
0.00381892
0.00368622
0.0035638
0.0034459
0.00178289
0.00148222
0.00123602
0.00102529
0.00082844
0.00064621
0.000479637
0.000328205
0.000191407
6.88795e-05
-3.9722e-05
-0.000134747
-0.000216524
-0.000285355
-0.000341507
-0.000385208
-0.00041663
-0.000435886
-0.000443038
-0.000438097
-0.000421023
-0.000391712
-0.000350012
-0.000295728
-0.000228634
-0.000148488
-5.50483e-05
5.1892e-05
0.000172511
0.000306941
0.000455253
0.000617435
0.000793362
0.000982784
0.00118531
0.0014004
0.00162731
0.00186516
0.00211282
0.00236901
0.00263224
0.00290085
0.00317296
0.00344654
0.00371935
0.00398906
0.0042532
0.00450927
0.00475471
0.00498703
0.00520374
0.00540249
0.00558108
0.00573749
0.00586997
0.00597705
0.00605761
0.00611091
0.00613659
0.00613471
0.00610575
0.0060506
0.00597055
0.00586726
0.00574277
0.00559938
0.00543969
0.00526647
0.00508265
0.00489124
0.00469527
0.00449772
0.0043015
0.00410937
0.00392383
0.00374719
0.00358211
0.00343094
0.00328685
0.00314238
0.00195398
0.00161908
0.00134707
0.00111664
0.00090326
0.000707447
0.000529994
0.000369962
0.000226445
9.87031e-05
-1.3965e-05
-0.000112221
-0.000196685
-0.000267903
-0.000326355
-0.000372442
-0.000406484
-0.000428723
-0.000439312
-0.000438329
-0.000425775
-0.000401562
-0.000365535
-0.000317472
-0.000257116
-0.00018418
-9.8366e-05
6.10347e-07
0.000113012
0.000239062
0.000378932
0.000532712
0.000700379
0.000881787
0.00107665
0.00128451
0.00150474
0.00173652
0.00197884
0.00223046
0.00248996
0.0027557
0.00302584
0.00329833
0.00357096
0.00384133
0.00410695
0.00436523
0.00461356
0.00484933
0.00506994
0.00527293
0.00545594
0.00561681
0.00575365
0.00586483
0.00594911
0.00600558
0.00603376
0.0060336
0.00600544
0.0059501
0.00586878
0.00576309
0.00563499
0.00548676
0.00532096
0.00514035
0.00494787
0.00474651
0.0045393
0.00432925
0.00411925
0.00391207
0.00371025
0.00351605
0.00333229
0.00316143
0.00299483
0.0028234
0.00210163
0.00173336
0.00143604
0.00118605
0.000956088
0.000746454
0.000557734
0.000388598
0.000237754
0.000104111
-1.33651e-05
-0.000115643
-0.000203603
-0.000278022
-0.00033958
-0.000388851
-0.000426298
-0.000452274
-0.000467023
-0.000470684
-0.00046329
-0.000444762
-0.000414935
-0.000373567
-0.000320366
-0.000254994
-0.000177086
-8.62779e-05
1.77832e-05
0.000135418
0.000266901
0.00041243
0.000572091
0.000745844
0.000933504
0.00113472
0.00134897
0.00157553
0.00181345
0.00206158
0.00231855
0.00258274
0.00285235
0.00312533
0.00339944
0.00367225
0.0039412
0.00420364
0.00445685
0.00469809
0.00492465
0.0051339
0.00532333
0.00549061
0.00563366
0.0057507
0.00584028
0.00590135
0.00593327
0.00593582
0.00590925
0.00585424
0.00577191
0.00566378
0.00553178
0.00537815
0.00520543
0.00501639
0.00481398
0.00460122
0.00438119
0.00415694
0.00393143
0.00370748
0.00348768
0.00327436
0.00307052
0.00287884
0.00268889
0.00249005
0.00222191
0.00182119
0.00149909
0.00122983
0.000983384
0.000759857
0.000559655
0.000381079
0.000222464
8.23734e-05
-4.05319e-05
-0.000147501
-0.000239661
-0.000318018
-0.000383435
-0.000436648
-0.000478256
-0.000508718
-0.00052836
-0.000537369
-0.000535799
-0.00052358
-0.000500537
-0.000466406
-0.00042085
-0.000363473
-0.000293837
-0.000211497
-0.000116001
-6.92531e-06
0.000116115
0.000253429
0.000405212
0.00057154
0.000752337
0.000947369
0.00115622
0.00137824
0.0016126
0.00185821
0.00211373
0.00237762
0.00264806
0.00292302
0.00320022
0.0034772
0.00375134
0.00401988
0.00427999
0.0045288
0.00476344
0.0049811
0.00517909
0.00535489
0.0055062
0.00563104
0.00572776
0.0057951
0.00583224
0.0058388
0.00581487
0.00576099
0.00567818
0.00556788
0.00543195
0.00527262
0.00509241
0.00489413
0.00468074
0.00445534
0.00422109
0.00398112
0.00373849
0.00349616
0.00325679
0.00302285
0.00279759
0.00258395
0.00236978
0.00214297
0.0023111
0.00187885
0.00153262
0.00124445
0.000981727
0.000744375
0.00053262
0.00034439
0.000177672
3.0711e-05
-9.81274e-05
-0.000210359
-0.000307351
-0.000390313
-0.000460292
-0.000518175
-0.000564687
-0.000600385
-0.000625659
-0.000640735
-0.000645689
-0.000640453
-0.000624843
-0.000598559
-0.000561214
-0.000512351
-0.000451454
-0.000377984
-0.000291388
-0.000191131
-7.67151e-05
5.22828e-05
0.000196179
0.000355168
0.0005293
0.000718458
0.000922334
0.0011404
0.00137189
0.00161579
0.00187085
0.00213555
0.0024081
0.00268645
0.00296831
0.00325117
0.00353232
0.00380892
0.004078
0.00433655
0.0045815
0.00480986
0.00501872
0.00520533
0.00536717
0.005502
0.00560794
0.00568351
0.00572765
0.0057398
0.00571986
0.00566821
0.00558576
0.00547383
0.00533424
0.00516917
0.00498117
0.00477305
0.00454785
0.00430877
0.00405906
0.00380199
0.00354079
0.00327854
0.00301809
0.00276206
0.00251404
0.00227727
0.00203792
0.00178237
0.00236565
0.00190285
0.00153314
0.00122652
0.000947836
0.000696821
0.00047353
0.000275539
0.000100492
-5.36662e-05
-0.000188855
-0.000306844
-0.000409229
-0.000497416
-0.000572626
-0.00063589
-0.000688042
-0.000729724
-0.000761381
-0.000783273
-0.000795494
-0.000797975
-0.00079051
-0.00077276
-0.000744284
-0.000704551
-0.000652965
-0.000588884
-0.000511646
-0.0004206
-0.000315134
-0.000194701
-5.88565e-05
9.27279e-05
0.000260234
0.000443671
0.000642849
0.000857349
0.00108651
0.00132941
0.00158485
0.00185136
0.00212717
0.00241024
0.00269826
0.00298866
0.00327866
0.0035653
0.00384548
0.004116
0.00437361
0.0046151
0.00483732
0.00503725
0.0052121
0.00535938
0.00547691
0.00556296
0.00561621
0.00563586
0.00562159
0.00557361
0.00549266
0.00537998
0.00523729
0.00506674
0.00487089
0.00465259
0.00441498
0.00416135
0.00389512
0.00361972
0.00333856
0.00305495
0.00277194
0.00249238
0.00222023
0.00195908
0.00169344
0.00140816
0.00238217
0.0018898
0.00149734
0.00117279
0.00087852
0.000614083
0.000379354
0.000171573
-1.19433e-05
-0.000173549
-0.000315435
-0.000439617
-0.000547909
-0.000641908
-0.000722998
-0.000792338
-0.000850862
-0.000899283
-0.000938097
-0.000967593
-0.000987876
-0.000998869
-0.00100034
-0.000991896
-0.000973041
-0.000943164
-0.000901575
-0.000847527
-0.000780242
-0.000698953
-0.00060292
-0.000491466
-0.000364005
-0.000220065
-5.93241e-05
0.000118363
0.000312938
0.000524103
0.00075131
0.000993729
0.00125024
0.00151942
0.00179954
0.00208857
0.00238417
0.00268374
0.0029844
0.00328307
0.00357651
0.00386133
0.00413408
0.00439128
0.00462952
0.00484551
0.00503613
0.00519859
0.0053304
0.00542951
0.00549432
0.00552373
0.00551718
0.00547466
0.00539674
0.00528451
0.00513961
0.00496415
0.00476069
0.00453214
0.00428172
0.00401289
0.00372922
0.00343437
0.00313199
0.00282562
0.00251861
0.00221405
0.00191632
0.00162946
0.00133625
0.00101999
0.00235739
0.00183648
0.00142204
0.00108011
0.000770687
0.000493127
0.000247125
2.95948e-05
-0.00016247
-0.000331713
-0.00048059
-0.000611359
-0.000726043
-0.000826422
-0.000914025
-0.00099013
-0.00105576
-0.00111169
-0.00115847
-0.0011964
-0.0012256
-0.00124597
-0.00125724
-0.00125898
-0.0012506
-0.00123142
-0.00120065
-0.00115742
-0.00110084
-0.00103001
-0.000944071
-0.000842189
-0.000723629
-0.000587767
-0.00043413
-0.00026242
-7.25548e-05
0.000135307
0.000360738
0.000603016
0.00086111
0.00113367
0.00141901
0.00171511
0.00201964
0.00232993
0.00264302
0.00295573
0.00326464
0.00356618
0.00385665
0.00413231
0.00438946
0.00462446
0.0048339
0.00501458
0.0051637
0.00527882
0.00535801
0.00539984
0.00540346
0.00536861
0.00529562
0.00518544
0.00503958
0.00486011
0.00464958
0.00441096
0.0041476
0.00386311
0.00356127
0.00324599
0.00292119
0.00259074
0.00225826
0.00192719
0.00160239
0.00128835
0.000966099
0.000617324
0.00228817
0.00173978
0.00130417
0.000945462
0.00062136
0.000331023
7.39681e-05
-0.00015322
-0.000353863
-0.000530893
-0.000687025
-0.00082475
-0.000946293
-0.0010536
-0.00114834
-0.0012319
-0.00130539
-0.00136963
-0.00142522
-0.00147248
-0.00151152
-0.00154221
-0.00156425
-0.00157713
-0.00158021
-0.00157269
-0.00155369
-0.00152222
-0.00147726
-0.00141779
-0.00134278
-0.00125127
-0.00114233
-0.0010152
-0.000869224
-0.000703942
-0.000519115
-0.00031475
-9.11353e-05
0.000151133
0.00041113
0.000687591
0.000978895
0.00128306
0.00159773
0.00192021
0.00224748
0.00257622
0.00290285
0.00322358
0.00353448
0.00383152
0.00411066
0.00436792
0.00459949
0.00480179
0.0049716
0.00510608
0.00520289
0.00526024
0.00527692
0.00525237
0.00518666
0.00508054
0.00493538
0.00475317
0.00453645
0.00428827
0.00401209
0.0037117
0.00339114
0.00305457
0.00270626
0.00235042
0.00199103
0.00163189
0.00127841
0.000935593
0.000582622
0.000199497
0.00217148
0.00159672
0.00114079
0.000765936
0.000427672
0.00012495
-0.000142898
-0.000379614
-0.000588838
-0.000773779
-0.000937411
-0.00108245
-0.0012113
-0.00132609
-0.00142859
-0.00152031
-0.00160243
-0.00167583
-0.00174112
-0.00179866
-0.00184853
-0.00189057
-0.00192444
-0.00194955
-0.00196518
-0.00197043
-0.00196431
-0.00194571
-0.00191348
-0.00186645
-0.00180343
-0.00172329
-0.00162494
-0.00150742
-0.0013699
-0.00121174
-0.00103254
-0.00083211
-0.000610597
-0.000368447
-0.000106453
0.000174225
0.000472046
0.000785075
0.00111098
0.00144703
0.00179015
0.00213688
0.00248348
0.00282596
0.00316012
0.0034816
0.00378603
0.00406903
0.00432637
0.00455404
0.00474832
0.00490593
0.00502408
0.00510051
0.00513363
0.00512251
0.00506691
0.00496733
0.00482496
0.00464171
0.00442008
0.00416317
0.00387459
0.00355831
0.00321865
0.00286009
0.00248726
0.00210477
0.00171701
0.0013282
0.000944329
0.00057098
0.00018539
-0.000234231
0.0020044
0.00140443
0.000929044
0.000538741
0.000186871
-0.00012781
-0.000406162
-0.000652256
-0.00087004
-0.001063
-0.00123437
-0.00138706
-0.00152368
-0.00164649
-0.0017574
-0.001858
-0.00194955
-0.00203299
-0.00210896
-0.00217779
-0.00223956
-0.00229408
-0.00234093
-0.00237948
-0.00240888
-0.00242816
-0.0024362
-0.00243177
-0.00241357
-0.00238026
-0.00233051
-0.00226298
-0.00217641
-0.00206965
-0.00194165
-0.0017916
-0.00161887
-0.0014231
-0.00120425
-0.000962597
-0.000698774
-0.00041381
-0.000109143
0.000213365
0.000551416
0.000902277
0.00126279
0.00162942
0.00199826
0.00236508
0.0027254
0.00307456
0.00340779
0.00372029
0.00400737
0.0042645
0.00448746
0.00467244
0.0048161
0.00491571
0.00496918
0.00497516
0.00493303
0.004843
0.00470603
0.00452389
0.00429905
0.00403464
0.00373439
0.00340252
0.00304362
0.00266253
0.00226428
0.00185394
0.00143634
0.00101618
0.000600094
0.000194302
-0.000226037
-0.000684622
0.00178411
0.00116014
0.000666253
0.000261216
-0.000103669
-0.000429856
-0.000718406
-0.000973712
-0.00120003
-0.00140112
-0.00158044
-0.00174113
-0.00188596
-0.00201734
-0.00213732
-0.00224757
-0.00234941
-0.00244383
-0.00253147
-0.00261269
-0.00268751
-0.00275573
-0.00281684
-0.00287015
-0.00291471
-0.00294944
-0.00297309
-0.00298431
-0.00298164
-0.00296358
-0.00292859
-0.00287518
-0.00280186
-0.00270727
-0.00259015
-0.00244947
-0.00228437
-0.0020943
-0.00187899
-0.0016385
-0.00137331
-0.00108427
-0.000772694
-0.000440335
-8.94354e-05
0.000277287
0.000656641
0.00104499
0.00143826
0.00183202
0.0022215
0.0026017
0.00296744
0.00331346
0.00363454
0.00392563
0.00418192
0.00439898
0.00457289
0.00470032
0.00477864
0.00480598
0.00478128
0.00470439
0.00457598
0.00439764
0.00417176
0.00390151
0.00359073
0.00324387
0.00286583
0.00246185
0.00203741
0.00159806
0.00114916
0.000695917
0.000245694
-0.000194614
-0.000652067
-0.00115241
0.00150794
0.000861271
0.000349858
-6.91606e-05
-0.000446444
-0.000783667
-0.00108209
-0.00134644
-0.00158125
-0.00179056
-0.00197806
-0.00214709
-0.00230059
-0.00244114
-0.00257087
-0.00269156
-0.00280459
-0.00291097
-0.00301138
-0.00310614
-0.00319527
-0.00327849
-0.00335526
-0.00342478
-0.00348602
-0.00353778
-0.00357869
-0.00360725
-0.00362183
-0.00362075
-0.0036023
-0.00356476
-0.00350645
-0.00342574
-0.00332118
-0.00319145
-0.00303549
-0.00285248
-0.0026419
-0.00240361
-0.00213784
-0.00184526
-0.001527
-0.00118471
-0.000820509
-0.00043709
-3.76513e-05
0.000374089
0.000793925
0.0012172
0.00163888
0.00205359
0.00245571
0.00283952
0.00319922
0.00352915
0.00382384
0.00407822
0.00428766
0.00444817
0.00455647
0.00461008
0.00460744
0.00454792
0.00443186
0.00426061
0.00403642
0.00376247
0.00344272
0.00308184
0.00268507
0.00225806
0.0018068
0.00133738
0.000855724
0.000367613
-0.000118793
-0.000595855
-0.00109302
-0.00163825
0.00117336
0.000505345
-2.25602e-05
-0.000454772
-0.000843813
-0.00119158
-0.00149956
-0.00177275
-0.00201601
-0.00223364
-0.00242953
-0.00260726
-0.00276992
-0.00292023
-0.00306044
-0.00319241
-0.00331757
-0.00343697
-0.00355128
-0.00366083
-0.00376559
-0.00386525
-0.00395918
-0.00404651
-0.00412611
-0.00419665
-0.00425665
-0.00430443
-0.0043382
-0.0043561
-0.00435621
-0.00433659
-0.00429532
-0.00423054
-0.00414052
-0.00402369
-0.00387871
-0.00370449
-0.00350023
-0.00326552
-0.00300033
-0.0027051
-0.00238076
-0.00202876
-0.00165113
-0.00125045
-0.000829908
-0.000393277
5.51206e-05
0.000510431
0.000967327
0.00142008
0.00186262
0.0022887
0.00269192
0.00306595
0.00340461
0.00370206
0.00395291
0.0041524
0.00429648
0.004382
0.00440675
0.00436955
0.00427034
0.00411011
0.00389097
0.00361603
0.00328936
0.00291586
0.0025011
0.0020512
0.00157266
0.00107221
0.000556375
3.15742e-05
-0.00049316
-0.00100937
-0.00154909
-0.00214265
0.000777958
9.00437e-05
-0.000453269
-0.000897856
-0.00129799
-0.00165581
-0.00197297
-0.00225482
-0.00250649
-0.00273251
-0.00293704
-0.00312383
-0.00329617
-0.00345687
-0.00360832
-0.00375244
-0.00389072
-0.00402423
-0.00415366
-0.00427931
-0.00440113
-0.00451874
-0.00463147
-0.00473833
-0.00483811
-0.00492937
-0.00501046
-0.00507956
-0.00513469
-0.0051738
-0.00519476
-0.00519539
-0.00517352
-0.00512703
-0.0050539
-0.00495228
-0.00482051
-0.0046572
-0.00446124
-0.0042319
-0.00396886
-0.00367229
-0.00334284
-0.00298176
-0.0025909
-0.00217273
-0.00173036
-0.00126759
-0.00078882
-0.000299095
0.000195992
0.000690345
0.00117745
0.00165047
0.0021024
0.00252616
0.00291479
0.00326161
0.00356035
0.00380538
0.0039918
0.00411561
0.00417386
0.00416474
0.00408762
0.00394312
0.00373307
0.0034605
0.00312954
0.00274529
0.00231369
0.00184133
0.00133531
0.000803001
0.000251612
-0.000311726
-0.000877025
-0.00143493
-0.00202028
-0.00266597
0.000319523
-0.000386786
-0.000944373
-0.00140048
-0.00181103
-0.00217836
-0.00250436
-0.00279465
-0.00305467
-0.0032892
-0.00350262
-0.00369887
-0.00388139
-0.00405315
-0.00421662
-0.0043738
-0.00452622
-0.004675
-0.00482081
-0.00496395
-0.00510433
-0.00524152
-0.00537478
-0.00550305
-0.00562499
-0.00573905
-0.00584342
-0.00593613
-0.00601502
-0.00607783
-0.00612219
-0.0061457
-0.0061459
-0.0061204
-0.00606687
-0.00598313
-0.00586721
-0.00571735
-0.00553209
-0.00531036
-0.00505149
-0.0047553
-0.00442218
-0.00405308
-0.00364962
-0.0032141
-0.00274953
-0.00225967
-0.00174899
-0.00122266
-0.000686529
-0.000147057
0.000388777
0.000913569
0.00141962
0.00189908
0.00234413
0.00274714
0.00310089
0.00339873
0.00363477
0.00380408
0.00390281
0.00392837
0.00387947
0.00375622
0.0035601
0.00329398
0.00296199
0.00256944
0.00212262
0.00162862
0.00109517
0.000530342
-5.78841e-05
-0.000661605
-0.00126978
-0.00187208
-0.00250636
-0.00320831
-0.000203979
-0.000927103
-0.00149778
-0.00196453
-0.00238478
-0.00276107
-0.00309552
-0.00339406
-0.00366238
-0.00390553
-0.0041281
-0.00433421
-0.00452747
-0.00471096
-0.00488726
-0.00505844
-0.00522607
-0.0053913
-0.00555482
-0.0057169
-0.00587742
-0.00603591
-0.00619156
-0.00634321
-0.00648943
-0.00662852
-0.00675855
-0.00687737
-0.00698263
-0.00707185
-0.00714245
-0.00719174
-0.00721701
-0.00721554
-0.00718468
-0.0071219
-0.00702486
-0.00689141
-0.00671972
-0.00650829
-0.00625608
-0.00596252
-0.00562763
-0.00525204
-0.00483708
-0.00438482
-0.0038981
-0.00338059
-0.00283677
-0.00227191
-0.00169208
-0.00110409
-0.000515369
6.60882e-05
0.000631867
0.00117329
0.0016816
0.00214815
0.00256462
0.00292325
0.00321701
0.00343988
0.00358697
0.00365474
0.00364112
0.00354555
0.00336908
0.0031143
0.00278531
0.00238755
0.00192767
0.00141329
0.000852784
0.000255021
-0.000371204
-0.00101713
-0.00167055
-0.00232006
-0.00300681
-0.00376949
-0.000794378
-0.00153266
-0.0021152
-0.00259168
-0.00302087
-0.00340557
-0.0037481
-0.00405468
-0.00433127
-0.00458316
-0.00481515
-0.00503153
-0.00523608
-0.00543199
-0.00562194
-0.00580807
-0.00599201
-0.00617493
-0.00635752
-0.00654004
-0.00672236
-0.00690395
-0.00708392
-0.00726104
-0.00743376
-0.00760027
-0.00775849
-0.0079061
-0.00804054
-0.00815914
-0.00825905
-0.00833733
-0.00839097
-0.00841691
-0.00841215
-0.0083738
-0.00829909
-0.00818548
-0.00803067
-0.00783274
-0.00759017
-0.00730199
-0.00696777
-0.00658776
-0.00616292
-0.00569503
-0.0051867
-0.00464143
-0.00406365
-0.00345869
-0.00283281
-0.00219309
-0.00154743
-0.000904411
-0.00027319
0.000336684
0.00091545
0.00145335
0.00194087
0.00236896
0.00272935
0.00301472
0.003219
0.00333753
0.00336725
0.00330682
0.00315668
0.00291906
0.00259791
0.00219878
0.00172865
0.00119565
0.000608886
-2.19572e-05
-0.000687175
-0.00137706
-0.00207814
-0.0027778
-0.00352077
-0.00434896
-0.00145328
-0.002205
-0.00279813
-0.00328337
-0.00372075
-0.0041133
-0.00446353
-0.00477794
-0.00506277
-0.00532351
-0.00556518
-0.00579226
-0.00600864
-0.00621766
-0.00642209
-0.00662414
-0.0068255
-0.00702735
-0.00723041
-0.00743493
-0.00764074
-0.00784727
-0.00805358
-0.00825834
-0.00845992
-0.00865636
-0.00884544
-0.00902466
-0.0091913
-0.00934244
-0.00947499
-0.00958573
-0.00967132
-0.00972837
-0.00975352
-0.00974343
-0.00969494
-0.00960501
-0.00947088
-0.00929013
-0.00906074
-0.00878123
-0.00845068
-0.00806889
-0.00763638
-0.00715454
-0.00662569
-0.00605308
-0.00544103
-0.00479484
-0.0041209
-0.00342655
-0.00272011
-0.00201074
-0.00130835
-0.000623387
3.33106e-05
0.000650789
0.00121821
0.00172515
0.00216186
0.00251961
0.00279089
0.00296976
0.00305198
0.00303523
0.00291919
0.00270556
0.00239805
0.00200224
0.00152539
0.000976163
0.000364391
-0.00029933
-0.00100432
-0.00173982
-0.00249096
-0.00324382
-0.00404696
-0.0049458
-0.00218205
-0.00294542
-0.00354782
-0.00404086
-0.00448567
-0.00488549
-0.00524303
-0.00556508
-0.00585809
-0.0061278
-0.00637941
-0.00661757
-0.00684633
-0.00706914
-0.00728887
-0.0075078
-0.00772768
-0.00794972
-0.00817466
-0.00840274
-0.00863377
-0.00886714
-0.00910185
-0.00933649
-0.00956932
-0.00979828
-0.010021
-0.0102348
-0.0104368
-0.0106239
-0.0107926
-0.0109395
-0.0110609
-0.0111531
-0.0112122
-0.0112346
-0.0112166
-0.0111547
-0.0110455
-0.0108861
-0.010674
-0.010407
-0.0100837
-0.00970337
-0.00926602
-0.00877255
-0.00822489
-0.00762598
-0.00697991
-0.00629191
-0.00556839
-0.00481692
-0.00404617
-0.00326588
-0.00248667
-0.00171995
-0.000977666
-0.000272048
0.000384638
0.000980417
0.00150394
0.00194482
0.00229396
0.00254385
0.00268889
0.00272554
0.00265252
0.00247084
0.00218382
0.00179697
0.00131777
0.000755394
0.00012044
-0.000575537
-0.00132079
-0.00210342
-0.002907
-0.00371618
-0.00458365
-0.00555857
-0.00298179
-0.00375499
-0.00436531
-0.00486518
-0.00531665
-0.00572315
-0.00608762
-0.00641707
-0.0067182
-0.00699696
-0.00725875
-0.00750837
-0.00775003
-0.00798729
-0.00822311
-0.00845987
-0.00869936
-0.00894283
-0.00919104
-0.00944423
-0.0097022
-0.0099643
-0.0102295
-0.0104963
-0.0107628
-0.011027
-0.0112862
-0.0115377
-0.0117784
-0.0120048
-0.0122134
-0.0124004
-0.0125617
-0.0126933