/*--------------------------------*- C++ -*----------------------------------*\
| =========                 |                                                 |
| \\      /  F ield         | OpenFOAM: The Open Source CFD Toolbox           |
|  \\    /   O peration     | Version:  2506                                  |
|   \\  /    A nd           | Website:  www.openfoam.com                      |
|    \\/     M anipulation  |                                                 |
\*---------------------------------------------------------------------------*/
FoamFile
{
    version     2.0;
    format      ascii;
    arch        "LSB;label=32;scalar=64";
    class       surfaceScalarField;
    location    "1.175";
    object      phi;
}
// * * * * * * * * * * * * * * * * * * * * * * * * * * * * * * * * * * * * * //

dimensions      [0 3 -1 0 0 0 0];

oriented        oriented;

internalField   nonuniform List<scalar> 
12640
(
2.06479e-10
-2.0627e-10
5.61182e-10
-3.54693e-10
8.42713e-10
-2.81541e-10
9.28549e-10
-8.58619e-11
7.65595e-10
1.62927e-10
3.36795e-10
4.28779e-10
-3.54777e-10
6.91585e-10
-1.29506e-09
9.40263e-10
-2.46414e-09
1.16908e-09
-3.83952e-09
1.37536e-09
-5.39768e-09
1.55817e-09
-7.11533e-09
1.71767e-09
-8.97001e-09
1.85467e-09
-1.09404e-08
1.97036e-09
-1.30064e-08
2.06605e-09
-1.51495e-08
2.14311e-09
-1.73524e-08
2.20287e-09
-1.95989e-08
2.24657e-09
-2.18742e-08
2.2753e-09
-2.41642e-08
2.29002e-09
-2.64558e-08
2.29157e-09
-2.87364e-08
2.28059e-09
-3.09939e-08
2.25753e-09
-3.32167e-08
2.22277e-09
-3.53932e-08
2.17654e-09
-3.75122e-08
2.11895e-09
-3.95622e-08
2.05002e-09
-4.1532e-08
1.96977e-09
-4.34101e-08
1.87816e-09
-4.51852e-08
1.77512e-09
-4.68458e-08
1.6606e-09
-4.83804e-08
1.53461e-09
-4.97777e-08
1.39723e-09
-5.10263e-08
1.24866e-09
-5.21155e-08
1.08914e-09
-5.30345e-08
9.19068e-10
-5.37736e-08
7.39018e-10
-5.43232e-08
5.49685e-10
-5.46752e-08
3.5195e-10
-5.48221e-08
1.46891e-10
-5.47578e-08
-6.42616e-11
-5.44777e-08
-2.80089e-10
-5.39788e-08
-4.98977e-10
-5.32596e-08
-7.19174e-10
-5.23208e-08
-9.38778e-10
-5.11651e-08
-1.15572e-09
-4.97973e-08
-1.36781e-09
-4.82245e-08
-1.57282e-09
-4.6456e-08
-1.76846e-09
-4.45037e-08
-1.95239e-09
-4.23813e-08
-2.12231e-09
-4.01054e-08
-2.27599e-09
-3.76941e-08
-2.41128e-09
-3.51679e-08
-2.52616e-09
-3.25491e-08
-2.61883e-09
-2.98614e-08
-2.6877e-09
-2.713e-08
-2.73141e-09
-2.43811e-08
-2.74892e-09
-2.16416e-08
-2.73949e-09
-1.89388e-08
-2.70276e-09
-1.63001e-08
-2.63871e-09
-1.37525e-08
-2.54767e-09
-1.13221e-08
-2.43038e-09
-9.03408e-09
-2.28798e-09
-6.91212e-09
-2.12197e-09
-4.97792e-09
-1.93421e-09
-3.25096e-09
-1.72697e-09
-1.74803e-09
-1.50292e-09
-4.8289e-10
-1.26515e-09
5.34336e-10
-1.01724e-09
1.29768e-09
-7.63341e-10
1.80609e-09
-5.084e-10
2.06462e-09
-2.58523e-10
2.0861e-09
-2.14872e-11
1.89382e-09
1.92284e-10
1.52569e-09
3.6813e-10
1.04061e-09
4.85092e-10
5.28778e-10
5.11836e-10
1.27426e-10
4.01339e-10
1.27416e-10
3.61384e-10
-5.67661e-10
8.1295e-10
-8.06281e-10
9.99201e-10
-4.67762e-10
7.0699e-10
2.06362e-10
-1.83992e-10
1.05393e-09
-1.7261e-09
1.97089e-09
-3.92632e-09
2.89176e-09
-6.76257e-09
3.77655e-09
-1.01952e-08
4.60169e-09
-1.41741e-08
5.35425e-09
-1.8644e-08
6.02808e-09
-2.35476e-08
6.62131e-09
-2.88279e-08
7.1349e-09
-3.44291e-08
7.57154e-09
-4.02979e-08
7.93483e-09
-4.63837e-08
8.22886e-09
-5.26386e-08
8.45779e-09
-5.90177e-08
8.62562e-09
-6.54784e-08
8.73604e-09
-7.19806e-08
8.79229e-09
-7.84862e-08
8.79717e-09
-8.49586e-08
8.75296e-09
-9.13625e-08
8.66147e-09
-9.76638e-08
8.52405e-09
-1.03829e-07
8.34163e-09
-1.09825e-07
8.11478e-09
-1.15619e-07
7.84385e-09
-1.21178e-07
7.52898e-09
-1.2647e-07
7.17024e-09
-1.31462e-07
6.76764e-09
-1.36123e-07
6.32128e-09
-1.4042e-07
5.83148e-09
-1.44322e-07
5.29877e-09
-1.47797e-07
4.72403e-09
-1.50816e-07
4.10855e-09
-1.53351e-07
3.45408e-09
-1.55375e-07
2.76291e-09
-1.56863e-07
2.03792e-09
-1.57794e-07
1.28256e-09
-1.58148e-07
5.00977e-10
-1.5791e-07
-3.02039e-10
-1.57069e-07
-1.12109e-09
-1.55618e-07
-1.95017e-09
-1.53555e-07
-2.78264e-09
-1.50882e-07
-3.61134e-09
-1.47609e-07
-4.42866e-09
-1.4375e-07
-5.2266e-09
-1.39326e-07
-5.99685e-09
-1.34364e-07
-6.73099e-09
-1.28896e-07
-7.42053e-09
-1.22961e-07
-8.05706e-09
-1.16605e-07
-8.63242e-09
-1.09877e-07
-9.13883e-09
-1.02834e-07
-9.56906e-09
-9.55365e-08
-9.91653e-09
-8.80487e-08
-1.01755e-08
-8.04391e-08
-1.03411e-08
-7.27784e-08
-1.04096e-08
-6.51393e-08
-1.03785e-08
-5.75956e-08
-1.02465e-08
-5.02207e-08
-1.00136e-08
-4.3087e-08
-9.68128e-09
-3.62651e-08
-9.25231e-09
-2.98221e-08
-8.731e-09
-2.3821e-08
-8.12306e-09
-1.83195e-08
-7.43569e-09
-1.33689e-08
-6.67759e-09
-9.01285e-09
-5.859e-09
-5.28617e-09
-4.99183e-09
-2.21347e-09
-4.08993e-09
1.92623e-10
-3.16942e-09
1.93359e-09
-2.24935e-09
3.02771e-09
-1.35265e-09
3.51393e-09
-5.07703e-10
3.45691e-09
2.49322e-10
2.95371e-09
8.71329e-10
2.14241e-09
1.29638e-09
1.21081e-09
1.44342e-09
3.99561e-10
1.21257e-09
5.2696e-10
2.88524e-10
-8.56192e-10
4.80796e-10
-9.98505e-10
1.79694e-10
-1.66684e-10
-8.59683e-10
1.2457e-09
-2.78356e-09
2.97784e-09
-5.66184e-09
4.84916e-09
-9.50835e-09
6.73828e-09
-1.4298e-08
8.56622e-09
-1.99798e-08
1.02834e-08
-2.64859e-08
1.18604e-08
-3.37389e-08
1.32811e-08
-4.16566e-08
1.4539e-08
-5.01552e-08
1.56335e-08
-5.91517e-08
1.6568e-08
-6.85653e-08
1.73484e-08
-7.83182e-08
1.79818e-08
-8.83361e-08
1.84758e-08
-9.85485e-08
1.88379e-08
-1.08888e-07
1.90755e-08
-1.1929e-07
1.91947e-08
-1.29694e-07
1.92013e-08
-1.40041e-07
1.90998e-08
-1.50274e-07
1.88941e-08
-1.60337e-07
1.85869e-08
-1.70176e-07
1.81804e-08
-1.79737e-07
1.76761e-08
-1.88968e-07
1.70747e-08
-1.97816e-07
1.6377e-08
-2.06229e-07
1.55834e-08
-2.14156e-07
1.46943e-08
-2.21545e-07
1.37103e-08
-2.28346e-07
1.26324e-08
-2.34509e-07
1.14622e-08
-2.39987e-07
1.0202e-08
-2.44733e-07
8.85488e-09
-2.48704e-07
7.42503e-09
-2.51859e-07
5.91763e-09
-2.5416e-07
4.33916e-09
-2.55575e-07
2.69737e-09
-2.56075e-07
1.00129e-09
-2.55639e-07
-7.38684e-10
-2.54249e-07
-2.51082e-09
-2.51897e-07
-4.30214e-09
-2.48581e-07
-6.09849e-09
-2.44308e-07
-7.8846e-09
-2.39092e-07
-9.64424e-09
-2.32958e-07
-1.13605e-08
-2.2594e-07
-1.30158e-08
-2.18078e-07
-1.45924e-08
-2.09426e-07
-1.60724e-08
-2.00045e-07
-1.74381e-08
-1.90005e-07
-1.86726e-08
-1.79385e-07
-1.97593e-08
-1.6827e-07
-2.06833e-08
-1.56756e-07
-2.14308e-08
-1.44942e-07
-2.19898e-08
-1.32932e-07
-2.23504e-08
-1.20837e-07
-2.25047e-08
-1.08768e-07
-2.24477e-08
-9.6838e-08
-2.21766e-08
-8.51599e-08
-2.16917e-08
-7.3845e-08
-2.09962e-08
-6.3001e-08
-2.00963e-08
-5.27308e-08
-1.90012e-08
-4.31305e-08
-1.77234e-08
-3.42878e-08
-1.62783e-08
-2.62806e-08
-1.46848e-08
-1.91744e-08
-1.29652e-08
-1.30211e-08
-1.11451e-08
-7.85633e-09
-9.2547e-09
-3.69717e-09
-7.32859e-09
-5.39118e-10
-5.4074e-09
1.6475e-09
-3.53925e-09
2.92197e-09
-1.78216e-09
3.37868e-09
-2.07364e-10
3.15344e-09
1.09656e-09
2.43081e-09
2.01899e-09
1.45038e-09
2.42385e-09
5.11331e-10
2.1516e-09
1.03827e-09
9.47355e-11
-9.50965e-10
-1.95986e-10
-7.07777e-10
-1.24431e-09
8.81659e-10
-3.28904e-09
3.29043e-09
-6.47476e-09
6.16352e-09
-1.08715e-08
9.24593e-09
-1.64918e-08
1.23585e-08
-2.33053e-08
1.53798e-08
-3.12517e-08
1.82298e-08
-4.025e-08
2.08587e-08
-5.02063e-08
2.32373e-08
-6.1019e-08
2.53518e-08
-7.25837e-08
2.71982e-08
-8.47952e-08
2.87796e-08
-9.75502e-08
3.01034e-08
-1.10748e-07
3.11797e-08
-1.24292e-07
3.20196e-08
-1.38089e-07
3.26346e-08
-1.52049e-07
3.30356e-08
-1.66087e-07
3.32326e-08
-1.8012e-07
3.32346e-08
-1.94069e-07
3.3049e-08
-2.07857e-07
3.26819e-08
-2.21408e-07
3.21382e-08
-2.34649e-07
3.14215e-08
-2.47508e-07
3.05345e-08
-2.59912e-07
2.9479e-08
-2.71791e-07
2.82564e-08
-2.83076e-07
2.68678e-08
-2.93696e-07
2.53146e-08
-3.03584e-07
2.35983e-08
-3.12673e-07
2.17211e-08
-3.20897e-07
1.96863e-08
-3.28193e-07
1.74984e-08
-3.34502e-07
1.51631e-08
-3.39765e-07
1.2688e-08
-3.4393e-07
1.00827e-08
-3.46949e-07
7.35829e-09
-3.4878e-07
4.5285e-09
-3.49388e-07
1.60901e-09
-3.48744e-07
-1.38226e-09
-3.4683e-07
-4.42525e-09
-3.43634e-07
-7.4978e-09
-3.39157e-07
-1.05758e-08
-3.33408e-07
-1.36333e-08
-3.26409e-07
-1.66431e-08
-3.18193e-07
-1.95765e-08
-3.08805e-07
-2.2404e-08
-2.98301e-07
-2.50959e-08
-2.86752e-07
-2.76221e-08
-2.74237e-07
-2.99532e-08
-2.60849e-07
-3.20604e-08
-2.46691e-07
-3.39168e-08
-2.31878e-07
-3.5497e-08
-2.1653e-07
-3.67781e-08
-2.0078e-07
-3.77403e-08
-1.84763e-07
-3.83671e-08
-1.68622e-07
-3.86455e-08
-1.52503e-07
-3.8567e-08
-1.36552e-07
-3.81275e-08
-1.20916e-07
-3.73275e-08
-1.0574e-07
-3.61725e-08
-9.1163e-08
-3.46733e-08
-7.73187e-08
-3.28455e-08
-6.43317e-08
-3.07105e-08
-5.23153e-08
-2.82947e-08
-4.13699e-08
-2.56303e-08
-3.15798e-08
-2.27553e-08
-2.30113e-08
-1.97136e-08
-1.57097e-08
-1.65563e-08
-9.69635e-09
-1.33419e-08
-4.96535e-09
-1.01384e-08
-1.47963e-09
-7.02495e-09
8.33317e-10
-4.09511e-09
2.08644e-09
-1.4605e-09
2.43856e-09
7.44423e-10
2.10034e-09
2.35721e-09
1.34039e-09
3.1838e-09
4.94179e-10
2.9978e-09
1.53243e-09
-1.58071e-10
-7.92898e-10
-1.0678e-09
2.01943e-10
-3.03631e-09
2.85017e-09
-6.26733e-09
6.52144e-09
-1.08837e-08
1.07799e-08
-1.69415e-08
1.53037e-08
-2.44427e-08
1.98597e-08
-3.33474e-08
2.42845e-08
-4.35848e-08
2.84673e-08
-5.50619e-08
3.23357e-08
-6.76707e-08
3.58461e-08
-8.12942e-08
3.89754e-08
-9.5811e-08
4.17149e-08
-1.11098e-07
4.40664e-08
-1.27033e-07
4.60381e-08
-1.43495e-07
4.76425e-08
-1.6037e-07
4.8894e-08
-1.77543e-07
4.98079e-08
-1.94906e-07
5.03991e-08
-2.12355e-07
5.06814e-08
-2.29788e-07
5.06672e-08
-2.47106e-07
5.03672e-08
-2.64214e-07
4.97902e-08
-2.81019e-07
4.89432e-08
-2.9743e-07
4.78318e-08
-3.13355e-07
4.646e-08
-3.28707e-07
4.48311e-08
-3.43398e-07
4.29476e-08
-3.57342e-07
4.08117e-08
-3.70454e-07
3.8426e-08
-3.82649e-07
3.57936e-08
-3.93846e-07
3.29185e-08
-4.03966e-07
2.98062e-08
-4.12932e-07
2.64641e-08
-4.20671e-07
2.29018e-08
-4.27114e-07
1.91312e-08
-4.32198e-07
1.5167e-08
-4.35867e-07
1.10269e-08
-4.3807e-07
6.73166e-09
-4.38766e-07
2.30522e-09
-4.37923e-07
-2.22526e-09
-4.35519e-07
-6.82948e-09
-4.31543e-07
-1.14742e-08
-4.25995e-07
-1.61232e-08
-4.18891e-07
-2.07379e-08
-4.10256e-07
-2.52776e-08
-4.00133e-07
-2.96997e-08
-3.88576e-07
-3.39606e-08
-3.75656e-07
-3.80159e-08
-3.61457e-07
-4.18215e-08
-3.46077e-07
-4.53336e-08
-3.29627e-07
-4.85101e-08
-3.12233e-07
-5.13108e-08
-2.94031e-07
-5.36986e-08
-2.7517e-07
-5.56398e-08
-2.55805e-07
-5.71051e-08
-2.36102e-07
-5.80701e-08
-2.16231e-07
-5.85162e-08
-1.96367e-07
-5.84307e-08
-1.76687e-07
-5.78075e-08
-1.57367e-07
-5.66478e-08
-1.3858e-07
-5.496e-08
-1.20493e-07
-5.276e-08
-1.03267e-07
-5.00715e-08
-8.7051e-08
-4.69265e-08
-7.19811e-08
-4.33646e-08
-5.81774e-08
-3.9434e-08
-4.57411e-08
-3.51915e-08
-3.47517e-08
-3.0703e-08
-2.52639e-08
-2.60441e-08
-1.73044e-08
-2.13015e-08
-1.08682e-08
-1.65746e-08
-5.9153e-09
-1.19778e-08
-2.36648e-09
-7.64392e-09
-9.91079e-11
-3.72788e-09
1.05735e-09
-4.12039e-10
1.32626e-09
2.08829e-09
9.89715e-10
3.52032e-09
3.98222e-10
3.58929e-09
1.93065e-09
-4.36819e-10
-3.56084e-10
-2.04221e-09
1.80737e-09
-5.03895e-09
5.84687e-09
-9.57713e-09
1.10596e-08
-1.57432e-08
1.6946e-08
-2.35676e-08
2.31281e-08
-3.30336e-08
2.93257e-08
-4.40866e-08
3.53375e-08
-5.66425e-08
4.10231e-08
-7.05953e-08
4.62885e-08
-8.58241e-08
5.10749e-08
-1.02198e-07
5.53493e-08
-1.19581e-07
5.90977e-08
-1.37834e-07
6.23197e-08
-1.5682e-07
6.50237e-08
-1.76401e-07
6.7224e-08
-1.96446e-07
6.89383e-08
-2.16823e-07
7.01854e-08
-2.37408e-07
7.09839e-08
-2.58078e-07
7.13516e-08
-2.78716e-07
7.13046e-08
-2.99205e-07
7.08565e-08
-3.19434e-07
7.00193e-08
-3.39293e-07
6.88022e-08
-3.58674e-07
6.7213e-08
-3.77472e-07
6.52577e-08
-3.95582e-07
6.29408e-08
-4.12901e-07
6.02665e-08
-4.29327e-07
5.72386e-08
-4.44762e-07
5.38611e-08
-4.59108e-07
5.01392e-08
-4.72269e-07
4.60794e-08
-4.84153e-07
4.16902e-08
-4.94672e-07
3.69826e-08
-5.03741e-07
3.19707e-08
-5.11281e-07
2.66718e-08
-5.17221e-07
2.1107e-08
-5.21496e-07
1.53015e-08
-5.24049e-07
9.28447e-09
-5.24833e-07
3.08963e-09
-5.23813e-07
-3.24517e-09
-5.20965e-07
-9.67779e-09
-5.16277e-07
-1.61621e-08
-5.09752e-07
-2.26481e-08
-5.01407e-07
-2.90825e-08
-4.91275e-07
-3.54094e-08
-4.79405e-07
-4.15702e-08
-4.6586e-07
-4.75052e-08
-4.50723e-07
-5.31535e-08
-4.3409e-07
-5.84546e-08
-4.16075e-07
-6.33488e-08
-3.96806e-07
-6.77785e-08
-3.76428e-07
-7.16889e-08
-3.55097e-07
-7.50291e-08
-3.32984e-07
-7.77534e-08
-3.10267e-07
-7.98216e-08
-2.87137e-07
-8.12006e-08
-2.63788e-07
-8.18647e-08
-2.40422e-07
-8.17968e-08
-2.17241e-07
-8.09889e-08
-1.94446e-07
-7.94423e-08
-1.72238e-07
-7.71687e-08
-1.50807e-07
-7.41902e-08
-1.30339e-07
-7.05396e-08
-1.11005e-07
-6.62606e-08
-9.29614e-08
-6.14083e-08
-7.63466e-08
-5.60488e-08
-6.12778e-08
-5.02603e-08
-4.78475e-08
-4.41333e-08
-3.61204e-08
-3.77712e-08
-2.61299e-08
-3.12919e-08
-1.78753e-08
-2.48292e-08
-1.13174e-08
-1.85357e-08
-6.37602e-09
-1.25853e-08
-2.9258e-09
-7.17809e-09
-7.92983e-10
-2.54485e-09
2.48616e-10
1.04669e-09
4.82293e-10
3.28662e-09
2.55861e-10
3.81572e-09
2.18651e-09
-7.24306e-10
3.68224e-10
-3.0635e-09
4.14656e-09
-7.15002e-09
9.93342e-09
-1.30704e-08
1.698e-08
-2.08646e-08
2.47401e-08
-3.05287e-08
3.27923e-08
-4.20206e-08
4.08176e-08
-5.52654e-08
4.85823e-08
-7.01625e-08
5.59202e-08
-8.65914e-08
6.27175e-08
-1.04418e-07
6.8901e-08
-1.23497e-07
7.44285e-08
-1.43679e-07
7.92803e-08
-1.64813e-07
8.34536e-08
-1.86746e-07
8.69567e-08
-2.09328e-07
8.98057e-08
-2.3241e-07
9.20207e-08
-2.55849e-07
9.36241e-08
-2.79504e-07
9.46384e-08
-3.03237e-07
9.50848e-08
-3.26915e-07
9.4983e-08
-3.50409e-07
9.43502e-08
-3.73591e-07
9.32009e-08
-3.96336e-07
9.15474e-08
-4.18522e-07
8.93993e-08
-4.40029e-07
8.67647e-08
-4.60738e-07
8.36501e-08
-4.80533e-07
8.00614e-08
-4.99299e-07
7.60041e-08
-5.16922e-07
7.14845e-08
-5.33293e-07
6.65101e-08
-5.48304e-07
6.10905e-08
-5.61851e-07
5.52377e-08
-5.73836e-07
4.89672e-08
-5.84164e-07
4.22982e-08
-5.92746e-07
3.52545e-08
-5.99504e-07
2.78644e-08
-6.04364e-07
2.01617e-08
-6.07265e-07
1.21853e-08
-6.08155e-07
3.97964e-09
-6.06995e-07
-4.40516e-09
-6.03759e-07
-1.29138e-08
-5.98435e-07
-2.14856e-08
-5.91028e-07
-3.00554e-08
-5.81557e-07
-3.85537e-08
-5.70059e-07
-4.69073e-08
-5.56589e-07
-5.50402e-08
-5.41219e-07
-6.28746e-08
-5.24041e-07
-7.03316e-08
-5.05163e-07
-7.73326e-08
-4.84712e-07
-8.38002e-08
-4.62831e-07
-8.96596e-08
-4.3968e-07
-9.48397e-08
-4.15434e-07
-9.92747e-08
-3.90283e-07
-1.02905e-07
-3.64426e-07
-1.05679e-07
-3.38073e-07
-1.07553e-07
-3.11444e-07
-1.08494e-07
-2.84762e-07
-1.08479e-07
-2.58251e-07
-1.07499e-07
-2.32139e-07
-1.05555e-07
-2.06646e-07
-1.02661e-07
-1.81989e-07
-9.88474e-08
-1.58373e-07
-9.41557e-08
-1.35991e-07
-8.86431e-08
-1.15018e-07
-8.2381e-08
-9.56108e-08
-7.54558e-08
-7.79022e-08
-6.79688e-08
-6.19982e-08
-6.00373e-08
-4.79746e-08
-5.17949e-08
-3.58739e-08
-4.33926e-08
-2.57018e-08
-3.50013e-08
-1.74245e-08
-2.6813e-08
-1.09651e-08
-1.90447e-08
-6.20135e-09
-1.19418e-08
-2.96282e-09
-5.78339e-09
-1.02815e-09
-8.87964e-10
-1.22295e-10
2.38076e-09
8.75348e-11
3.60589e-09
2.27403e-09
-1.01165e-09
1.37985e-09
-4.09883e-09
7.23377e-09
-9.30511e-09
1.51397e-08
-1.6649e-08
2.43239e-08
-2.61179e-08
3.42091e-08
-3.76678e-08
4.43422e-08
-5.12253e-08
5.4375e-08
-6.66909e-08
6.4048e-08
-8.39443e-08
7.31736e-08
-1.02848e-07
8.16214e-08
-1.23253e-07
8.9306e-08
-1.45001e-07
9.61769e-08
-1.67931e-07
1.0221e-07
-1.91876e-07
1.07399e-07
-2.16672e-07
1.11753e-07
-2.42157e-07
1.1529e-07
-2.68169e-07
1.18032e-07
-2.9455e-07
1.20006e-07
-3.21148e-07
1.21236e-07
-3.47812e-07
1.21749e-07
-3.74395e-07
1.21566e-07
-4.00753e-07
1.20709e-07
-4.26748e-07
1.19195e-07
-4.52239e-07
1.17039e-07
-4.77093e-07
1.14253e-07
-5.01176e-07
1.10847e-07
-5.24356e-07
1.0683e-07
-5.46504e-07
1.0221e-07
-5.67494e-07
9.69934e-08
-5.87199e-07
9.11902e-08
-6.055e-07
8.48105e-08
-6.22276e-07
7.7867e-08
-6.37415e-07
7.03763e-08
-6.50806e-07
6.23586e-08
-6.62347e-07
5.38393e-08
-6.71942e-07
4.4849e-08
-6.79502e-07
3.54245e-08
-6.84949e-07
2.56088e-08
-6.88215e-07
1.54516e-08
-6.89245e-07
5.00946e-09
-6.87996e-07
-5.65449e-09
-6.84439e-07
-1.64703e-08
-6.78563e-07
-2.73618e-08
-6.70372e-07
-3.82469e-08
-6.59887e-07
-4.90384e-08
-6.4715e-07
-5.96447e-08
-6.32219e-07
-6.99708e-08
-6.15174e-07
-7.99193e-08
-5.96114e-07
-8.93915e-08
-5.75158e-07
-9.82893e-08
-5.52442e-07
-1.06516e-07
-5.28124e-07
-1.13978e-07
-5.02377e-07
-1.20586e-07
-4.75392e-07
-1.26259e-07
-4.47376e-07
-1.30922e-07
-4.18545e-07
-1.34509e-07
-3.89131e-07
-1.36967e-07
-3.59372e-07
-1.38253e-07
-3.29511e-07
-1.3834e-07
-2.99796e-07
-1.37214e-07
-2.70475e-07
-1.34876e-07
-2.41791e-07
-1.31346e-07
-2.13981e-07
-1.26658e-07
-1.87271e-07
-1.20865e-07
-1.61875e-07
-1.14039e-07
-1.37988e-07
-1.06269e-07
-1.15782e-07
-9.76611e-08
-9.54082e-08
-8.8343e-08
-7.69859e-08
-7.84597e-08
-6.06041e-08
-6.81767e-08
-4.63163e-08
-5.76804e-08
-3.41381e-08
-4.71795e-08
-2.40438e-08
-3.69073e-08
-1.59643e-08
-2.71242e-08
-9.78498e-09
-1.81212e-08
-5.34381e-09
-1.02246e-08
-2.4301e-09
-3.80167e-09
-7.83587e-10
7.34258e-10
-9.39229e-11
2.91622e-09
2.18011e-09
-1.29436e-09
2.67423e-09
-5.12937e-09
1.10688e-08
-1.14642e-08
2.14745e-08
-2.02486e-08
3.31083e-08
-3.14147e-08
4.53752e-08
-4.48743e-08
5.78017e-08
-6.05185e-08
7.00192e-08
-7.82201e-08
8.17495e-08
-9.78356e-08
9.2789e-08
-1.19209e-07
1.02995e-07
-1.42175e-07
1.12272e-07
-1.66561e-07
1.20563e-07
-1.92192e-07
1.2784e-07
-2.18891e-07
1.34098e-07
-2.46481e-07
1.39343e-07
-2.74787e-07
1.43597e-07
-3.03638e-07
1.46883e-07
-3.32864e-07
1.49232e-07
-3.623e-07
1.50672e-07
-3.91784e-07
1.51233e-07
-4.21158e-07
1.5094e-07
-4.50267e-07
1.49818e-07
-4.78958e-07
1.47886e-07
-5.07082e-07
1.45163e-07
-5.34492e-07
1.41663e-07
-5.61042e-07
1.37398e-07
-5.86591e-07
1.32379e-07
-6.10997e-07
1.26616e-07
-6.34122e-07
1.20119e-07
-6.55831e-07
1.12899e-07
-6.75991e-07
1.04971e-07
-6.94475e-07
9.63508e-08
-7.11158e-07
8.70594e-08
-7.25923e-07
7.7123e-08
-7.38657e-07
6.65731e-08
-7.49256e-07
5.54484e-08
-7.57626e-07
4.37944e-08
-7.63681e-07
3.16644e-08
-7.67349e-07
1.91195e-08
-7.68569e-07
6.22925e-09
-7.67295e-07
-6.92892e-09
-7.63495e-07
-2.02696e-08
-7.57157e-07
-3.36998e-08
-7.48285e-07
-4.71195e-08
-7.369e-07
-6.04227e-08
-7.23047e-07
-7.3498e-08
-7.06788e-07
-8.62298e-08
-6.88208e-07
-9.84998e-08
-6.67411e-07
-1.10188e-07
-6.44524e-07
-1.21176e-07
-6.19694e-07
-1.31346e-07
-5.93088e-07
-1.40583e-07
-5.64894e-07
-1.48781e-07
-5.35314e-07
-1.55839e-07
-5.0457e-07
-1.61666e-07
-4.72897e-07
-1.66182e-07
-4.40543e-07
-1.69322e-07
-4.07763e-07
-1.71033e-07
-3.74822e-07
-1.71281e-07
-3.41987e-07
-1.70049e-07
-3.09526e-07
-1.67337e-07
-2.77703e-07
-1.63168e-07
-2.46777e-07
-1.57584e-07
-2.16994e-07
-1.50648e-07
-1.88588e-07
-1.42445e-07
-1.61773e-07
-1.33084e-07
-1.36741e-07
-1.22693e-07
-1.13659e-07
-1.11426e-07
-9.26618e-08
-9.94565e-08
-7.38543e-08
-8.69842e-08
-5.73032e-08
-7.42315e-08
-4.30361e-08
-6.14466e-08
-3.10391e-08
-4.89043e-08
-2.12542e-08
-3.69091e-08
-1.3578e-08
-2.57973e-08
-7.86102e-09
-1.59416e-08
-3.90727e-09
-7.7554e-09
-1.47541e-09
-1.69761e-09
-2.80796e-10
1.7216e-09
1.89931e-09
-1.57036e-09
4.24461e-09
-6.14452e-09
1.56429e-08
-1.36029e-08
2.89328e-08
-2.38279e-08
4.33333e-08
-3.66954e-08
5.82427e-08
-5.20708e-08
7.31772e-08
-6.98076e-08
8.77559e-08
-8.97473e-08
1.01689e-07
-1.11722e-07
1.14763e-07
-1.35553e-07
1.26827e-07
-1.6106e-07
1.37778e-07
-1.88054e-07
1.47557e-07
-2.16346e-07
1.56133e-07
-2.45749e-07
1.635e-07
-2.76073e-07
1.69667e-07
-3.07133e-07
1.74657e-07
-3.38747e-07
1.78497e-07
-3.70735e-07
1.8122e-07
-4.02922e-07
1.82859e-07
-4.35136e-07
1.83446e-07
-4.67207e-07
1.83012e-07
-4.98971e-07
1.81582e-07
-5.30266e-07
1.7918e-07
-5.6093e-07
1.75827e-07
-5.90806e-07
1.71539e-07
-6.1974e-07
1.66332e-07
-6.47578e-07
1.60217e-07
-6.7417e-07
1.53207e-07
-6.99367e-07
1.45316e-07
-7.23024e-07
1.36556e-07
-7.45e-07
1.26947e-07
-7.65156e-07
1.16507e-07
-7.83361e-07
1.05264e-07
-7.99488e-07
9.32494e-08
-8.13416e-07
8.05015e-08
-8.25035e-07
6.70671e-08
-8.34242e-07
5.30015e-08
-8.40946e-07
3.83686e-08
-8.45069e-07
2.3242e-08
-8.46544e-07
7.70459e-09
-8.45322e-07
-8.15099e-09
-8.41368e-07
-2.42229e-08
-8.34668e-07
-4.04006e-08
-8.25222e-07
-5.65651e-08
-8.13055e-07
-7.25903e-08
-7.98209e-07
-8.83439e-08
-7.8075e-07
-1.03689e-07
-7.60765e-07
-1.18484e-07
-7.38366e-07
-1.32588e-07
-7.13683e-07
-1.45859e-07
-6.86872e-07
-1.58157e-07
-6.58109e-07
-1.69346e-07
-6.27591e-07
-1.79299e-07
-5.95534e-07
-1.87896e-07
-5.62173e-07
-1.95027e-07
-5.27757e-07
-2.00598e-07
-4.9255e-07
-2.04529e-07
-4.56826e-07
-2.06757e-07
-4.20868e-07
-2.0724e-07
-3.84962e-07
-2.05955e-07
-3.49395e-07
-2.02903e-07
-3.14454e-07
-1.98109e-07
-2.80417e-07
-1.91621e-07
-2.47552e-07
-1.83513e-07
-2.16112e-07
-1.73885e-07
-1.86333e-07
-1.62863e-07
-1.58425e-07
-1.50601e-07
-1.32575e-07
-1.37276e-07
-1.08936e-07
-1.23096e-07
-8.7628e-08
-1.08292e-07
-6.87348e-08
-9.31247e-08
-5.22989e-08
-7.78825e-08
-3.83204e-08
-6.28828e-08
-2.67556e-08
-4.8474e-08
-1.75154e-08
-3.50375e-08
-1.04657e-08
-2.29912e-08
-5.428e-09
-1.27931e-08
-2.18184e-09
-4.94377e-09
-4.68737e-10
8.48501e-12
1.43058e-09
-1.83877e-09
6.08337e-09
-7.13853e-09
2.09427e-08
-1.57065e-08
3.75008e-08
-2.73603e-08
5.49871e-08
-4.19201e-08
7.28025e-08
-5.9204e-08
9.0461e-08
-7.9026e-08
1.07578e-07
-1.01195e-07
1.23858e-07
-1.25516e-07
1.39084e-07
-1.51789e-07
1.531e-07
-1.79813e-07
1.65802e-07
-2.09384e-07
1.77128e-07
-2.40301e-07
1.8705e-07
-2.72361e-07
1.9556e-07
-3.05367e-07
2.02673e-07
-3.39122e-07
2.08412e-07
-3.73434e-07
2.12809e-07
-4.08115e-07
2.15901e-07
-4.4298e-07
2.17724e-07
-4.77847e-07
2.18314e-07
-5.12539e-07
2.17704e-07
-5.46882e-07
2.15925e-07
-5.80703e-07
2.13002e-07
-6.13834e-07
2.08959e-07
-6.46109e-07
2.03814e-07
-6.77362e-07
1.97585e-07
-7.07432e-07
1.90287e-07
-7.36159e-07
1.81934e-07
-7.63385e-07
1.72542e-07
-7.88958e-07
1.62129e-07
-8.12726e-07
1.50715e-07
-8.34543e-07
1.38324e-07
-8.54268e-07
1.2499e-07
-8.71767e-07
1.10748e-07
-8.86912e-07
9.56464e-08
-8.99584e-07
7.97393e-08
-9.09674e-07
6.30919e-08
-9.17085e-07
4.57795e-08
-9.21732e-07
2.78884e-08
-9.23543e-07
9.51573e-09
-9.22464e-07
-9.2303e-09
-9.18456e-07
-2.82308e-08
-9.115e-07
-4.73565e-08
-9.01596e-07
-6.64688e-08
-8.88766e-07
-8.54207e-08
-8.73052e-07
-1.04058e-07
-8.5452e-07
-1.22221e-07
-8.33259e-07
-1.39744e-07
-8.09384e-07
-1.56464e-07
-7.83029e-07
-1.72213e-07
-7.54357e-07
-1.86829e-07
-7.2355e-07
-2.00153e-07
-6.90815e-07
-2.12034e-07
-6.56378e-07
-2.22332e-07
-6.20486e-07
-2.30919e-07
-5.83402e-07
-2.37682e-07
-5.45405e-07
-2.42526e-07
-5.06786e-07
-2.45376e-07
-4.67844e-07
-2.46181e-07
-4.28886e-07
-2.44913e-07
-3.9022e-07
-2.4157e-07
-3.5215e-07
-2.36178e-07
-3.14979e-07
-2.28792e-07
-2.78995e-07
-2.19497e-07
-2.44474e-07
-2.08406e-07
-2.11671e-07
-1.95666e-07
-1.8082e-07
-1.81451e-07
-1.52127e-07
-1.65969e-07
-1.25766e-07
-1.49457e-07
-1.01875e-07
-1.32182e-07
-8.05568e-08
-1.14443e-07
-6.18711e-08
-9.65683e-08
-4.58351e-08
-7.89188e-08
-3.24216e-08
-6.18874e-08
-2.15586e-08
-4.59005e-08
-1.31293e-08
-3.14206e-08
-6.9742e-09
-1.89482e-08
-2.89406e-09
-9.02392e-09
-6.5576e-10
-2.2298e-09
7.7483e-10
-2.09931e-09
8.18268e-09
-8.10847e-09
2.69518e-08
-1.77664e-08
4.71587e-08
-3.08292e-08
6.80499e-08
-4.70622e-08
8.90356e-08
-6.62366e-08
1.09635e-07
-8.81262e-08
1.29468e-07
-1.12506e-07
1.48239e-07
-1.39153e-07
1.65731e-07
-1.67844e-07
1.81791e-07
-1.98358e-07
1.96315e-07
-2.30474e-07
2.09245e-07
-2.63978e-07
2.20553e-07
-2.98654e-07
2.30237e-07
-3.34293e-07
2.38313e-07
-3.70691e-07
2.44809e-07
-4.07645e-07
2.49763e-07
-4.44959e-07
2.53215e-07
-4.82439e-07
2.55204e-07
-5.19897e-07
2.55771e-07
-5.57146e-07
2.54954e-07
-5.94005e-07
2.52784e-07
-6.30295e-07
2.49291e-07
-6.65837e-07
2.44501e-07
-7.00457e-07
2.38434e-07
-7.33984e-07
2.31111e-07
-7.66246e-07
2.22549e-07
-7.97076e-07
2.12764e-07
-8.26309e-07
2.01775e-07
-8.53783e-07
1.89603e-07
-8.7934e-07
1.76271e-07
-9.02824e-07
1.61809e-07
-9.24088e-07
1.46253e-07
-9.42988e-07
1.29649e-07
-9.59391e-07
1.12049e-07
-9.73169e-07
9.35174e-08
-9.84206e-07
7.41293e-08
-9.92398e-07
5.39717e-08
-9.97654e-07
3.31437e-08
-9.99895e-07
1.17571e-08
-9.99062e-07
-1.00637e-08
-9.9511e-07
-3.21823e-08
-9.88016e-07
-5.44502e-08
-9.77777e-07
-7.67086e-08
-9.64409e-07
-9.87884e-08
-9.47954e-07
-1.20513e-07
-9.28477e-07
-1.41698e-07
-9.06067e-07
-1.62155e-07
-8.80838e-07
-1.81693e-07
-8.5293e-07
-2.00122e-07
-8.22507e-07
-2.17252e-07
-7.89759e-07
-2.32901e-07
-7.54899e-07
-2.46894e-07
-7.18163e-07
-2.59068e-07
-6.79808e-07
-2.69274e-07
-6.4011e-07
-2.77379e-07
-5.99363e-07
-2.83273e-07
-5.57873e-07
-2.86866e-07
-5.15959e-07
-2.88096e-07
-4.73944e-07
-2.86928e-07
-4.32157e-07
-2.83357e-07
-3.90926e-07
-2.77409e-07
-3.50573e-07
-2.69145e-07
-3.11411e-07
-2.58659e-07
-2.73738e-07
-2.46079e-07
-2.37833e-07
-2.3157e-07
-2.03954e-07
-2.15331e-07
-1.72327e-07
-1.97596e-07
-1.43151e-07
-1.78634e-07
-1.16585e-07
-1.58748e-07
-9.27516e-08
-1.38276e-07
-7.17313e-08
-1.17589e-07
-5.35607e-08
-9.70895e-08
-3.82314e-08
-7.72167e-08
-2.56901e-08
-5.84419e-08
-1.58389e-08
-4.12717e-08
-8.53789e-09
-2.62492e-08
-3.6088e-09
-1.3953e-08
-8.40958e-10
-4.99763e-09
-6.61217e-11
-2.35204e-09
1.05347e-08
-9.05289e-09
3.36526e-08
-1.97778e-08
5.78836e-08
-3.4224e-08
8.2496e-08
-5.21041e-08
1.06916e-07
-7.31429e-08
1.30674e-07
-9.70741e-08
1.53399e-07
-1.23639e-07
1.74803e-07
-1.52584e-07
1.94677e-07
-1.83664e-07
2.1287e-07
-2.16635e-07
2.29287e-07
-2.51262e-07
2.43872e-07
-2.87313e-07
2.56604e-07
-3.24563e-07
2.67487e-07
-3.62792e-07
2.76541e-07
-4.01783e-07
2.83801e-07
-4.41329e-07
2.89309e-07
-4.81224e-07
2.93109e-07
-5.21267e-07
2.95247e-07
-5.61262e-07
2.95767e-07
-6.01017e-07
2.94709e-07
-6.40343e-07
2.9211e-07
-6.79053e-07
2.88001e-07
-7.16964e-07
2.82411e-07
-7.53893e-07
2.75364e-07
-7.89662e-07
2.6688e-07
-8.24094e-07
2.5698e-07
-8.57012e-07
2.45683e-07
-8.88246e-07
2.33009e-07
-9.17624e-07
2.18982e-07
-9.44982e-07
2.03629e-07
-9.70158e-07
1.86985e-07
-9.92996e-07
1.69091e-07
-1.01334e-06
1.49998e-07
-1.03106e-06
1.29767e-07
-1.04602e-06
1.0847e-07
-1.05808e-06
8.61933e-08
-1.06714e-06
6.30348e-08
-1.07311e-06
3.91071e-08
-1.07589e-06
1.45367e-08
-1.07541e-06
-1.05357e-08
-1.07164e-06
-3.59555e-08
-1.06454e-06
-6.15549e-08
-1.05409e-06
-8.71539e-08
-1.04032e-06
-1.12561e-07
-1.02325e-06
-1.37576e-07
-1.00296e-06
-1.61989e-07
-9.7953e-07
-1.85588e-07
-9.5307e-07
-2.08153e-07
-9.23722e-07
-2.29469e-07
-8.91654e-07
-2.4932e-07
-8.5706e-07
-2.67496e-07
-8.20158e-07
-2.83797e-07
-7.81192e-07
-2.98034e-07
-7.40429e-07
-3.10037e-07
-6.98157e-07
-3.19651e-07
-6.54683e-07
-3.26747e-07
-6.1033e-07
-3.31219e-07
-5.65433e-07
-3.32994e-07
-5.20335e-07
-3.32025e-07
-4.75387e-07
-3.28304e-07
-4.30939e-07
-3.21858e-07
-3.87336e-07
-3.12748e-07
-3.44915e-07
-3.0108e-07
-3.04001e-07
-2.86994e-07
-2.64897e-07
-2.70674e-07
-2.27886e-07
-2.52342e-07
-1.93221e-07
-2.32261e-07
-1.61124e-07
-2.10731e-07
-1.31779e-07
-1.88093e-07
-1.05332e-07
-1.64723e-07
-8.1886e-08
-1.41035e-07
-6.14991e-08
-1.17476e-07
-4.41842e-08
-9.45316e-08
-2.99082e-08
-7.27179e-08
-1.8593e-08
-5.25869e-08
-1.01185e-08
-3.47237e-08
-4.32602e-09
-1.97455e-08
-1.02477e-09
-8.29887e-09
-1.09089e-09
-2.59711e-09
1.31318e-08
-9.97121e-09
4.10267e-08
-2.17377e-08
6.96502e-08
-3.75379e-08
9.82962e-08
-5.70336e-08
1.26411e-07
-7.99043e-08
1.53545e-07
-1.05844e-07
1.79338e-07
-1.3456e-07
2.03519e-07
-1.6577e-07
2.25887e-07
-1.99203e-07
2.46303e-07
-2.34595e-07
2.64679e-07
-2.71694e-07
2.80971e-07
-3.10253e-07
2.95163e-07
-3.50035e-07
3.07268e-07
-3.90808e-07
3.17314e-07
-4.32349e-07
3.25342e-07
-4.7444e-07
3.314e-07
-5.16869e-07
3.35538e-07
-5.59429e-07
3.37807e-07
-6.01916e-07
3.38255e-07
-6.44134e-07
3.36927e-07
-6.85887e-07
3.33862e-07
-7.26982e-07
3.29096e-07
-7.6723e-07
3.22659e-07
-8.06444e-07
3.14577e-07
-8.44438e-07
3.04874e-07
-8.81028e-07
2.9357e-07
-9.16033e-07
2.80688e-07
-9.49275e-07
2.6625e-07
-9.80576e-07
2.50283e-07
-1.00976e-06
2.32818e-07
-1.03667e-06
2.13892e-07
-1.06113e-06
1.93553e-07
-1.08299e-06
1.71857e-07
-1.1021e-06
1.48873e-07
-1.11831e-06
1.24681e-07
-1.13149e-06
9.93779e-08
-1.14153e-06
7.30728e-08
-1.14832e-06
4.58915e-08
-1.15176e-06
1.79753e-08
-1.15177e-06
-1.05185e-08
-1.14831e-06
-3.94174e-08
-1.14133e-06
-6.85335e-08
-1.13082e-06
-9.76653e-08
-1.11678e-06
-1.26599e-07
-1.09925e-06
-1.55108e-07
-1.07828e-06
-1.8296e-07
-1.05396e-06
-2.09913e-07
-1.02639e-06
-2.35722e-07
-9.95715e-07
-2.60142e-07
-9.62106e-07
-2.82929e-07
-9.25756e-07
-3.03845e-07
-8.86889e-07
-3.22663e-07
-8.45756e-07
-3.39168e-07
-8.02631e-07
-3.53162e-07
-7.57813e-07
-3.64469e-07
-7.11623e-07
-3.72937e-07
-6.64399e-07
-3.78443e-07
-6.16495e-07
-3.80898e-07
-5.68273e-07
-3.80247e-07
-5.20106e-07
-3.76471e-07
-4.72367e-07
-3.69596e-07
-4.25427e-07
-3.59688e-07
-3.7965e-07
-3.46857e-07
-3.35387e-07
-3.31258e-07
-2.92969e-07
-3.13091e-07
-2.52707e-07
-2.92604e-07
-2.14883e-07
-2.70085e-07
-1.79745e-07
-2.45869e-07
-1.47505e-07
-2.20333e-07
-1.18335e-07
-1.93893e-07
-9.23633e-08
-1.67007e-07
-6.96715e-08
-1.40168e-07
-5.02954e-08
-1.13908e-07
-3.42238e-08
-8.87896e-08
-2.13992e-08
-6.54115e-08
-1.17208e-08
-4.44021e-08
-5.04846e-09
-2.64178e-08
-1.20815e-09
-1.21392e-08
-2.29904e-09
-2.83467e-09
1.59665e-08
-1.08632e-08
4.90552e-08
-2.36444e-08
8.24313e-08
-4.07663e-08
1.15418e-07
-6.1842e-08
1.47487e-07
-8.65071e-08
1.7821e-07
-1.14417e-07
2.07248e-07
-1.45244e-07
2.34347e-07
-1.78679e-07
2.59321e-07
-2.14424e-07
2.82048e-07
-2.52197e-07
3.02452e-07
-2.91726e-07
3.20499e-07
-3.3275e-07
3.36188e-07
-3.7502e-07
3.49538e-07
-4.18295e-07
3.60589e-07
-4.6234e-07
3.69388e-07
-5.06933e-07
3.75992e-07
-5.51852e-07
3.80458e-07
-5.96887e-07
3.82841e-07
-6.41828e-07
3.83196e-07
-6.86472e-07
3.81571e-07
-7.30619e-07
3.78009e-07
-7.74072e-07
3.72549e-07
-8.16636e-07
3.65224e-07
-8.58119e-07
3.5606e-07
-8.9833e-07
3.45085e-07
-9.3708e-07
3.32321e-07
-9.74183e-07
3.17791e-07
-1.00945e-06
3.0152e-07
-1.04271e-06
2.83538e-07
-1.07377e-06
2.63878e-07
-1.10246e-06
2.42582e-07
-1.12861e-06
2.19703e-07
-1.15205e-06
1.95301e-07
-1.17263e-06
1.69453e-07
-1.1902e-06
1.42248e-07
-1.20461e-06
1.1379e-07
-1.21574e-06
8.42025e-08
-1.22347e-06
5.36224e-08
-1.2277e-06