/*--------------------------------*- C++ -*----------------------------------*\
| =========                 |                                                 |
| \\      /  F ield         | OpenFOAM: The Open Source CFD Toolbox           |
|  \\    /   O peration     | Version:  2506                                  |
|   \\  /    A nd           | Website:  www.openfoam.com                      |
|    \\/     M anipulation  |                                                 |
\*---------------------------------------------------------------------------*/
FoamFile
{
    version     2.0;
    format      ascii;
    arch        "LSB;label=32;scalar=64";
    class       volVectorField;
    location    "1.175";
    object      U;
}
// * * * * * * * * * * * * * * * * * * * * * * * * * * * * * * * * * * * * * //

dimensions      [0 1 -1 0 0 0 0];

internalField   nonuniform List<vector> 
6400
(
(8.30702e-06 -7.86959e-06 0)
(3.11599e-05 -1.43509e-05 0)
(5.84983e-05 -1.31333e-05 0)
(7.46712e-05 -7.75647e-06 0)
(7.23121e-05 -7.91473e-07 0)
(4.88275e-05 6.53309e-06 0)
(3.91789e-06 1.36119e-05 0)
(-6.16141e-05 2.01597e-05 0)
(-0.000146338 2.60618e-05 0)
(-0.000248512 3.12864e-05 0)
(-0.000366267 3.58415e-05 0)
(-0.000497712 3.97569e-05 0)
(-0.000641007 4.3074e-05 0)
(-0.000794392 4.58423e-05 0)
(-0.000956212 4.81099e-05 0)
(-0.00112492 4.99198e-05 0)
(-0.00129908 5.13125e-05 0)
(-0.00147735 5.23261e-05 0)
(-0.0016585 5.29915e-05 0)
(-0.00184138 5.3336e-05 0)
(-0.0020249 5.33826e-05 0)
(-0.00220803 5.31474e-05 0)
(-0.00238979 5.26416e-05 0)
(-0.00256923 5.18743e-05 0)
(-0.00274542 5.0851e-05 0)
(-0.00291746 4.95723e-05 0)
(-0.00308444 4.80362e-05 0)
(-0.00324546 4.62409e-05 0)
(-0.0033996 4.41843e-05 0)
(-0.00354595 4.18618e-05 0)
(-0.0036836 3.92691e-05 0)
(-0.00381162 3.64029e-05 0)
(-0.00392911 3.32627e-05 0)
(-0.00403516 2.98508e-05 0)
(-0.00412887 2.61708e-05 0)
(-0.00420939 2.22294e-05 0)
(-0.0042759 1.80378e-05 0)
(-0.00432761 1.36103e-05 0)
(-0.00436382 8.96655e-06 0)
(-0.00438389 4.13152e-06 0)
(-0.00438729 -8.66272e-07 0)
(-0.00437359 -5.99336e-06 0)
(-0.00434246 -1.1211e-05 0)
(-0.00429374 -1.64771e-05 0)
(-0.00422738 -2.17453e-05 0)
(-0.00414353 -2.69643e-05 0)
(-0.00404247 -3.20795e-05 0)
(-0.00392468 -3.70355e-05 0)
(-0.00379083 -4.17745e-05 0)
(-0.00364175 -4.62374e-05 0)
(-0.00347847 -5.0366e-05 0)
(-0.00330221 -5.4104e-05 0)
(-0.00311435 -5.73962e-05 0)
(-0.00291645 -6.0191e-05 0)
(-0.00271022 -6.24417e-05 0)
(-0.00249749 -6.41073e-05 0)
(-0.00228025 -6.51526e-05 0)
(-0.00206053 -6.55496e-05 0)
(-0.00184049 -6.52792e-05 0)
(-0.00162228 -6.43308e-05 0)
(-0.00140812 -6.27027e-05 0)
(-0.00120016 -6.04021e-05 0)
(-0.00100056 -5.74459e-05 0)
(-0.00081137 -5.38605e-05 0)
(-0.000634549 -4.96813e-05 0)
(-0.00047192 -4.49519e-05 0)
(-0.000325138 -3.97249e-05 0)
(-0.000195662 -3.40623e-05 0)
(-8.47248e-05 -2.8035e-05 0)
(6.70968e-06 -2.17243e-05 0)
(7.79832e-05 -1.52252e-05 0)
(0.000128798 -8.65202e-06 0)
(0.000159288 -2.15061e-06 0)
(0.000170134 4.08297e-06 0)
(0.000162729 9.76278e-06 0)
(0.00013945 1.44516e-05 0)
(0.000104009 1.74574e-05 0)
(6.21699e-05 1.76407e-05 0)
(2.38757e-05 1.32609e-05 0)
(3.61243e-06 3.62209e-06 0)
(1.50283e-05 -3.13147e-05 0)
(4.98358e-05 -4.89557e-05 0)
(7.9474e-05 -3.65142e-05 0)
(7.86874e-05 -6.98413e-06 0)
(3.30375e-05 3.07257e-05 0)
(-6.37494e-05 7.13623e-05 0)
(-0.000213584 0.000111833 0)
(-0.000415617 0.000150374 0)
(-0.000667218 0.000186017 0)
(-0.000964681 0.000218283 0)
(-0.00130371 0.000246979 0)
(-0.00167976 0.00027209 0)
(-0.0020882 0.000293717 0)
(-0.00252452 0.000312018 0)
(-0.00298433 0.000327185 0)
(-0.00346347 0.000339421 0)
(-0.00395802 0.000348926 0)
(-0.00446424 0.000355887 0)
(-0.00497864 0.000360473 0)
(-0.00549794 0.00036283 0)
(-0.00601899 0.000363086 0)
(-0.00653881 0.000361338 0)
(-0.00705455 0.000357665 0)
(-0.00756344 0.000352123 0)
(-0.00806275 0.000344748 0)
(-0.00854984 0.000335562 0)
(-0.00902207 0.000324573 0)
(-0.00947684 0.000311782 0)
(-0.00991154 0.000297186 0)
(-0.0103236 0.000280778 0)
(-0.0107103 0.000262554 0)
(-0.0110692 0.000242519 0)
(-0.0113978 0.000220689 0)
(-0.0116935 0.000197094 0)
(-0.0119538 0.00017178 0)
(-0.0121765 0.000144812 0)
(-0.0123594 0.00011628 0)
(-0.0125003 8.62994e-05 0)
(-0.0125975 5.50096e-05 0)
(-0.0126492 2.25807e-05 0)
(-0.0126541 -1.07898e-05 0)
(-0.0126111 -4.48777e-05 0)
(-0.0125195 -7.94312e-05 0)
(-0.0123789 -0.000114172 0)
(-0.0121894 -0.0001488 0)
(-0.0119513 -0.000182991 0)
(-0.0116657 -0.000216405 0)
(-0.0113339 -0.000248689 0)
(-0.0109579 -0.000279485 0)
(-0.0105399 -0.000308429 0)
(-0.010083 -0.00033516 0)
(-0.00959041 -0.00035933 0)
(-0.00906601 -0.000380603 0)
(-0.00851405 -0.000398668 0)
(-0.0079392 -0.000413242 0)
(-0.00734648 -0.000424074 0)
(-0.00674123 -0.000430958 0)
(-0.00612901 -0.00043373 0)
(-0.00551559 -0.000432278 0)
(-0.00490685 -0.000426543 0)
(-0.00430867 -0.000416525 0)
(-0.00372694 -0.000402279 0)
(-0.00316738 -0.000383922 0)
(-0.00263551 -0.000361633 0)
(-0.00213657 -0.000335647 0)
(-0.00167541 -0.000306265 0)
(-0.0012564 -0.000273846 0)
(-0.000883368 -0.000238813 0)
(-0.000559483 -0.000201658 0)
(-0.00028715 -0.000162954 0)
(-6.78924e-05 -0.000123367 0)
(9.77946e-05 -8.36915e-05 0)
(0.000210641 -4.48981e-05 0)
(0.000272855 -8.21756e-06 0)
(0.000288483 2.47263e-05 0)
(0.000263877 5.1723e-05 0)
(0.000208156 6.97112e-05 0)
(0.000133907 7.44138e-05 0)
(6.014e-05 6.02546e-05 0)
(1.3156e-05 2.37916e-05 0)
(1.36232e-05 -5.90807e-05 0)
(3.75285e-05 -7.91309e-05 0)
(3.84612e-05 -3.73884e-05 0)
(-1.10977e-05 4.06253e-05 0)
(-0.000127528 0.000138042 0)
(-0.000318857 0.0002436 0)
(-0.000587986 0.000349979 0)
(-0.000934189 0.000452564 0)
(-0.00135421 0.000548565 0)
(-0.00184315 0.000636391 0)
(-0.00239508 0.000715238 0)
(-0.00300355 0.000784819 0)
(-0.00366184 0.000845185 0)
(-0.00436325 0.000896599 0)
(-0.00510122 0.000939442 0)
(-0.00586938 0.00097416 0)
(-0.00666164 0.00100122 0)
(-0.00747222 0.00102107 0)
(-0.00829559 0.00103412 0)
(-0.00912651 0.00104076 0)
(-0.00995997 0.00104129 0)
(-0.0107912 0.00103599 0)
(-0.0116155 0.00102507 0)
(-0.0124284 0.00100868 0)
(-0.0132255 0.000986937 0)
(-0.0140026 0.000959914 0)
(-0.0147553 0.000927653 0)
(-0.0154795 0.00089018 0)
(-0.016171 0.000847507 0)
(-0.0168256 0.000799644 0)
(-0.0174392 0.000746613 0)
(-0.0180078 0.000688456 0)
(-0.0185273 0.000625246 0)
(-0.0189939 0.000557093 0)
(-0.0194038 0.000484157 0)
(-0.0197533 0.000406652 0)
(-0.0200391 0.000324853 0)
(-0.020258 0.000239104 0)
(-0.0204073 0.000149821 0)
(-0.0204844 5.74931e-05 0)
(-0.0204873 -3.73147e-05 0)
(-0.0204145 -0.000133963 0)
(-0.0202649 -0.000231743 0)
(-0.0200382 -0.000329875 0)
(-0.0197344 -0.00042752 0)
(-0.0193544 -0.000523782 0)
(-0.0188999 -0.000617725 0)
(-0.018373 -0.00070838 0)
(-0.0177769 -0.000794758 0)
(-0.0171152 -0.000875868 0)
(-0.0163926 -0.000950729 0)
(-0.0156143 -0.00101839 0)
(-0.0147862 -0.00107794 0)
(-0.0139151 -0.00112854 0)
(-0.013008 -0.00116943 0)
(-0.0120728 -0.00119992 0)
(-0.0111178 -0.00121947 0)
(-0.0101514 -0.00122764 0)
(-0.00918262 -0.00122414 0)
(-0.00822042 -0.00120881 0)
(-0.00727388 -0.00118167 0)
(-0.006352 -0.00114288 0)
(-0.00546357 -0.00109278 0)
(-0.00461704 -0.00103187 0)
(-0.0038204 -0.000960844 0)
(-0.00308105 -0.000880536 0)
(-0.00240564 -0.000791978 0)
(-0.00179994 -0.000696382 0)
(-0.0012687 -0.00059516 0)
(-0.000815449 -0.00048995 0)
(-0.000442362 -0.000382662 0)
(-0.00015 -0.000275541 0)
(6.29232e-05 -0.000171278 0)
(0.000199872 -7.31695e-05 0)
(0.000266889 1.46514e-05 0)
(0.000273081 8.69122e-05 0)
(0.000230957 0.000136857 0)
(0.000156898 0.000155945 0)
(7.46085e-05 0.000134026 0)
(1.75117e-05 6.18871e-05 0)
(8.31586e-06 -7.62312e-05 0)
(8.03662e-06 -7.89487e-05 0)
(-4.00637e-05 1.20956e-05 0)
(-0.000160001 0.000159638 0)
(-0.000367131 0.0003388 0)
(-0.000669666 0.000532062 0)
(-0.00107056 0.000727378 0)
(-0.00156883 0.000916748 0)
(-0.00216064 0.00109505 0)
(-0.00284016 0.00125913 0)
(-0.00360028 0.00140727 0)
(-0.00443308 0.00153867 0)
(-0.00533025 0.0016532 0)
(-0.00628337 0.00175112 0)
(-0.00728405 0.00183299 0)
(-0.00832413 0.00189949 0)
(-0.00939569 0.00195139 0)
(-0.0104911 0.00198943 0)
(-0.0116031 0.00201434 0)
(-0.0127247 0.00202678 0)
(-0.0138492 0.0020273 0)
(-0.01497 0.00201639 0)
(-0.016081 0.00199444 0)
(-0.0171761 0.00196175 0)
(-0.0182492 0.00191853 0)
(-0.0192946 0.00186495 0)
(-0.0203066 0.00180111 0)
(-0.0212793 0.00172708 0)
(-0.0222072 0.00164292 0)
(-0.0230848 0.00154869 0)
(-0.0239065 0.00144446 0)
(-0.0246669 0.00133036 0)
(-0.0253606 0.00120657 0)
(-0.0259827 0.00107333 0)
(-0.026528 0.000930986 0)
(-0.026992 0.000779992 0)
(-0.0273701 0.000620905 0)
(-0.0276584 0.000454413 0)
(-0.0278531 0.000281337 0)
(-0.0279513 0.000102635 0)
(-0.0279503 -8.05966e-05 0)
(-0.0278483 -0.000267126 0)
(-0.027644 -0.00045559 0)
(-0.027337 -0.000644499 0)
(-0.0269276 -0.000832257 0)
(-0.0264172 -0.00101717 0)
(-0.0258078 -0.00119746 0)
(-0.0251027 -0.00137131 0)
(-0.0243057 -0.00153685 0)
(-0.0234221 -0.00169222 0)
(-0.0224578 -0.00183559 0)
(-0.0214197 -0.00196517 0)
(-0.0203158 -0.00207927 0)
(-0.0191546 -0.00217631 0)
(-0.0179457 -0.00225487 0)
(-0.0166991 -0.00231371 0)
(-0.0154256 -0.00235178 0)
(-0.0141365 -0.00236828 0)
(-0.0128432 -0.00236268 0)
(-0.0115575 -0.00233471 0)
(-0.0102911 -0.0022844 0)
(-0.0090558 -0.00221209 0)
(-0.00786295 -0.00211842 0)
(-0.00672355 -0.00200438 0)
(-0.00564793 -0.00187126 0)
(-0.00464567 -0.00172071 0)
(-0.00372537 -0.0015547 0)
(-0.00289445 -0.00137556 0)
(-0.00215899 -0.00118602 0)
(-0.00152352 -0.000989226 0)
(-0.000990757 -0.000788816 0)
(-0.000561395 -0.000589032 0)
(-0.000233793 -0.00039487 0)
(-3.6645e-06 -0.000212298 0)
(0.000136319 -4.85481e-05 0)
(0.000196946 8.75208e-05 0)
(0.000192705 0.000185034 0)
(0.00014215 0.000230829 0)
(7.1485e-05 0.000209524 0)
(1.75428e-05 0.0001039 0)
(1.32978e-06 -7.45303e-05 0)
(-3.04819e-05 -3.30092e-05 0)
(-0.000140582 0.000130011 0)
(-0.000345658 0.0003677 0)
(-0.000657836 0.000648072 0)
(-0.00108425 0.000947849 0)
(-0.00162702 0.00125043 0)
(-0.00228438 0.00154436 0)
(-0.00305171 0.00182201 0)
(-0.0039223 0.00207848 0)
(-0.00488797 0.00231089 0)
(-0.00593964 0.00251778 0)
(-0.00706769 0.00269868 0)
(-0.00826228 0.00285378 0)
(-0.00951355 0.00298373 0)
(-0.0108118 0.00308945 0)
(-0.0121476 0.00317195 0)
(-0.0135117 0.00323231 0)
(-0.0148953 0.00327157 0)
(-0.0162898 0.00329068 0)
(-0.0176871 0.00329048 0)
(-0.019079 0.00327169 0)
(-0.020458 0.00323492 0)
(-0.0218163 0.00318063 0)
(-0.0231468 0.00310918 0)
(-0.024442 0.00302083 0)
(-0.0256948 0.00291579 0)
(-0.0268983 0.0027942 0)
(-0.0280454 0.00265619 0)
(-0.0291293 0.0025019 0)
(-0.0301432 0.00233151 0)
(-0.0310805 0.00214526 0)
(-0.0319348 0.00194348 0)
(-0.0326997 0.00172664 0)
(-0.0333693 0.00149534 0)
(-0.0339378 0.00125032 0)
(-0.0344001 0.00099254 0)
(-0.0347513 0.000723133 0)
(-0.0349871 0.000443443 0)
(-0.0351038 0.000155028 0)
(-0.0350985 -0.000140342 0)
(-0.0349689 -0.000440688 0)
(-0.0347138 -0.000743827 0)
(-0.0343327 -0.00104739 0)
(-0.0338262 -0.00134883 0)
(-0.0331959 -0.00164547 0)
(-0.0324447 -0.00193452 0)
(-0.0315762 -0.00221308 0)
(-0.0305956 -0.00247822 0)
(-0.029509 -0.00272704 0)
(-0.0283237 -0.00295663 0)
(-0.0270482 -0.00316421 0)
(-0.0256918 -0.00334713 0)
(-0.0242652 -0.00350291 0)
(-0.0227796 -0.00362934 0)
(-0.0212474 -0.00372447 0)
(-0.0196813 -0.00378668 0)
(-0.018095 -0.00381474 0)
(-0.0165021 -0.0038078 0)
(-0.0149168 -0.00376546 0)
(-0.0133534 -0.00368779 0)
(-0.0118257 -0.00357534 0)
(-0.0103474 -0.00342914 0)
(-0.00893185 -0.00325078 0)
(-0.00759133 -0.00304232 0)
(-0.00633734 -0.00280638 0)
(-0.00518019 -0.00254614 0)
(-0.00412879 -0.00226531 0)
(-0.00319042 -0.00196823 0)
(-0.00237051 -0.0016599 0)
(-0.00167239 -0.00134606 0)
(-0.00109698 -0.00103334 0)
(-0.000642587 -0.000729404 0)
(-0.000304505 -0.000443255 0)
(-7.4742e-05 -0.000185514 0)
(5.83604e-05 3.11712e-05 0)
(0.000110309 0.000191693 0)
(0.000100789 0.000278164 0)
(5.67896e-05 0.00026966 0)
(1.509e-05 0.000140705 0)
(-6.21656e-06 -5.1097e-05 0)
(-7.33097e-05 6.65211e-05 0)
(-0.000253151 0.000327006 0)
(-0.000552915 0.000676572 0)
(-0.000980005 0.00107743 0)
(-0.00153947 0.00150134 0)
(-0.00223183 0.00192762 0)
(-0.003054 0.00234158 0)
(-0.00400027 0.00273312 0)
(-0.00506289 0.00309556 0)
(-0.00623267 0.00342478 0)
(-0.00749945 0.00371855 0)
(-0.00885246 0.00397598 0)
(-0.0102807 0.00419711 0)
(-0.011773 0.00438264 0)
(-0.0133183 0.00453363 0)
(-0.014906 0.00465138 0)
(-0.0165254 0.00473725 0)
(-0.0181664 0.00479259 0)
(-0.019819 0.00481866 0)
(-0.0214736 0.00481661 0)
(-0.0231209 0.0047874 0)
(-0.0247519 0.00473185 0)
(-0.0263576 0.00465063 0)
(-0.0279293 0.00454425 0)
(-0.0294586 0.00441311 0)
(-0.0309369 0.00425753 0)
(-0.0323561 0.00407776 0)
(-0.0337079 0.00387403 0)
(-0.0349844 0.0036466 0)
(-0.0361775 0.00339579 0)
(-0.0372797 0.00312202 0)
(-0.0382833 0.00282582 0)
(-0.0391811 0.00250792 0)
(-0.0399662 0.00216925 0)
(-0.0406321 0.00181096 0)
(-0.0411727 0.00143447 0)
(-0.0415825 0.00104146 0)
(-0.0418566 0.000633903 0)
(-0.0419909 0.000214086 0)
(-0.0419821 -0.000215423 0)
(-0.0418277 -0.000651756 0)
(-0.0415263 -0.00109177 0)
(-0.0410776 -0.00153205 0)
(-0.0404823 -0.00196896 0)
(-0.0397425 -0.00239867 0)
(-0.0388612 -0.00281717 0)
(-0.0378432 -0.00322035 0)
(-0.0366941 -0.00360406 0)
(-0.0354212 -0.00396414 0)
(-0.0340328 -0.00429649 0)
(-0.0325388 -0.00459714 0)
(-0.0309499 -0.00486235 0)
(-0.0292783 -0.00508862 0)
(-0.0275371 -0.00527279 0)
(-0.0257402 -0.00541213 0)
(-0.0239025 -0.00550434 0)
(-0.0220394 -0.00554767 0)
(-0.0201668 -0.00554094 0)
(-0.0183009 -0.00548359 0)
(-0.0164579 -0.00537573 0)
(-0.0146538 -0.00521815 0)
(-0.0129045 -0.00501237 0)
(-0.011225 -0.00476061 0)
(-0.00962967 -0.00446589 0)
(-0.00813162 -0.00413195 0)
(-0.00674273 -0.00376334 0)
(-0.00547329 -0.00336541 0)
(-0.00433175 -0.00294435 0)
(-0.00332446 -0.00250729 0)
(-0.00245541 -0.00206235 0)
(-0.00172599 -0.00161881 0)
(-0.00113466 -0.0011873 0)
(-0.000676714 -0.000780068 0)
(-0.000344002 -0.00041128 0)
(-0.000124616 -9.74646e-05 0)
(-2.73924e-06 0.000142033 0)
(4.16504e-05 0.000284645 0)
(3.49568e-05 0.000304068 0)
(1.13305e-05 0.000167526 0)
(-1.38108e-05 -4.78726e-06 0)
(-0.000117808 0.000223793 0)
(-0.000371545 0.000609458 0)
(-0.000771697 0.00109379 0)
(-0.00132003 0.00163462 0)
(-0.00201877 0.00219972 0)
(-0.0028662 0.00276495 0)
(-0.00385744 0.00331278 0)
(-0.00498534 0.00383086 0)
(-0.00624094 0.00431083 0)
(-0.00761393 0.00474738 0)
(-0.00909308 0.00513748 0)
(-0.0106666 0.00547977 0)
(-0.0123223 0.00577413 0)
(-0.014048 0.00602123 0)
(-0.0158315 0.0062223 0)
(-0.017661 0.00637883 0)
(-0.0195247 0.00649249 0)
(-0.0214112 0.00656492 0)
(-0.0233094 0.00659769 0)
(-0.0252085 0.00659222 0)
(-0.027098 0.00654975 0)
(-0.0289675 0.00647134 0)
(-0.030807 0.00635785 0)
(-0.0326067 0.00620997 0)
(-0.0343568 0.00602825 0)
(-0.0360478 0.00581315 0)
(-0.0376703 0.00556504 0)
(-0.039215 0.0052843 0)
(-0.0406728 0.00497135 0)
(-0.0420347 0.00462666 0)
(-0.0432921 0.00425088 0)
(-0.0444364 0.00384481 0)
(-0.0454597 0.00340951 0)
(-0.046354 0.00294628 0)
(-0.047112 0.00245676 0)
(-0.0477272 0.0019429 0)
(-0.0481932 0.00140705 0)
(-0.0485048 0.000851902 0)
(-0.0486573 0.000280564 0)
(-0.0486471 -0.000303474 0)
(-0.0484717 -0.000896339 0)
(-0.0481294 -0.00149379 0)
(-0.0476199 -0.00209124 0)
(-0.0469442 -0.00268383 0)
(-0.0461045 -0.0032664 0)
(-0.0451045 -0.00383361 0)
(-0.0439493 -0.00438 0)
(-0.0426454 -0.0049 0)
(-0.0412008 -0.00538809 0)
(-0.039625 -0.00583881 0)
(-0.0379286 -0.00624689 0)
(-0.036124 -0.00660734 0)
(-0.0342245 -0.00691551 0)
(-0.0322448 -0.00716722 0)
(-0.0302003 -0.00735881 0)
(-0.0281077 -0.00748724 0)
(-0.025984 -0.00755019 0)
(-0.0238471 -0.00754609 0)
(-0.0217149 -0.00747418 0)
(-0.0196055 -0.00733462 0)
(-0.0175369 -0.00712846 0)
(-0.0155268 -0.00685773 0)
(-0.0135919 -0.00652543 0)
(-0.0117482 -0.00613557 0)
(-0.0100107 -0.00569317 0)
(-0.00839263 -0.00520432 0)
(-0.00690562 -0.00467615 0)
(-0.00555929 -0.00411694 0)
(-0.00436099 -0.00353613 0)
(-0.00331552 -0.00294444 0)
(-0.00242487 -0.00235402 0)
(-0.00168798 -0.00177861 0)
(-0.00110047 -0.00123385 0)
(-0.000654442 -0.000737542 0)
(-0.000338231 -0.000310093 0)
(-0.000136263 2.50011e-05 0)
(-2.88034e-05 0.000240715 0)
(8.96374e-06 0.000305834 0)
(6.94626e-06 0.000181651 0)
(-2.12356e-05 6.46419e-05 0)
(-0.000162534 0.00044069 0)
(-0.000491987 0.000980793 0)
(-0.000995493 0.0016238 0)
(-0.0016687 0.00232448 0)
(-0.00251054 0.00304762 0)
(-0.00351657 0.00376634 0)
(-0.00467971 0.00446079 0)
(-0.00599106 0.0051167 0)
(-0.00744022 0.00572424 0)
(-0.00901565 0.00627701 0)
(-0.010705 0.00677127 0)
(-0.0124954 0.00720524 0)
(-0.0143736 0.00757859 0)
(-0.0163266 0.00789197 0)
(-0.0183411 0.00814674 0)
(-0.0204041 0.00834461 0)
(-0.0225029 0.0084875 0)
(-0.0246251 0.00857734 0)
(-0.0267586 0.00861601 0)
(-0.0288913 0.0086052 0)
(-0.0310118 0.00854642 0)
(-0.0331087 0.00844096 0)
(-0.0351709 0.00828989 0)
(-0.0371874 0.00809409 0)
(-0.0391475 0.00785427 0)
(-0.0410406 0.00757105 0)
(-0.0428563 0.00724497 0)
(-0.0445843 0.00687655 0)
(-0.0462146 0.00646638 0)
(-0.0477372 0.00601518 0)
(-0.0491426 0.00552383 0)
(-0.0504215 0.00499346 0)
(-0.0515648 0.0044255 0)
(-0.0525641 0.0038217 0)
(-0.0534113 0.00318424 0)
(-0.0540992 0.0025157 0)
(-0.0546209 0.00181914 0)
(-0.0549707 0.00109807 0)
(-0.0551435 0.000356533 0)
(-0.0551354 -0.000400978 0)
(-0.0549436 -0.00116947 0)
(-0.0545664 -0.0019435 0)
(-0.0540034 -0.00271719 0)
(-0.0532557 -0.00348431 0)
(-0.0523258 -0.0042383 0)
(-0.0512177 -0.00497233 0)
(-0.0499369 -0.00567944 0)
(-0.0484906 -0.00635255 0)
(-0.0468874 -0.00698461 0)
(-0.0451375 -0.0075687 0)
(-0.0432529 -0.00809811 0)
(-0.0412467 -0.00856648 0)
(-0.0391335 -0.00896791 0)
(-0.0369292 -0.00929706 0)
(-0.0346508 -0.00954928 0)
(-0.0323164 -0.0097207 0)
(-0.0299446 -0.00980834 0)
(-0.0275549 -0.00981018 0)
(-0.025167 -0.00972526 0)
(-0.0228006 -0.00955375 0)
(-0.0204756 -0.00929699 0)
(-0.0182112 -0.00895754 0)
(-0.016026 -0.0085392 0)
(-0.0139378 -0.00804709 0)
(-0.0119627 -0.00748761 0)
(-0.0101158 -0.00686847 0)
(-0.0084099 -0.00619878 0)
(-0.00685594 -0.005489 0)
(-0.00546233 -0.00475107 0)
(-0.00423485 -0.00399846 0)
(-0.00317629 -0.00324633 0)
(-0.00228631 -0.00251166 0)
(-0.00156118 -0.00181355 0)
(-0.000993567 -0.00117345 0)
(-0.000572461 -0.000615602 0)
(-0.000282958 -0.000167486 0)
(-0.000106083 0.000139732 0)
(-1.92562e-05 0.000270535 0)
(2.32982e-06 0.00018161 0)
(-2.8407e-05 0.000156947 0)
(-0.000206727 0.000717639 0)
(-0.000612226 0.00144239 0)
(-0.00122016 0.00226877 0)
(-0.0020199 0.00314963 0)
(-0.00300677 0.00404772 0)
(-0.00417328 0.00493416 0)
(-0.00550984 0.00578732 0)
(-0.00700552 0.00659145 0)
(-0.0086483 0.00733551 0)
(-0.0104252 0.00801223 0)
(-0.0123228 0.00861728 0)
(-0.014327 0.0091485 0)
(-0.0164237 0.00960543 0)
(-0.0185988 0.00998873 0)
(-0.0208381 0.0102999 0)
(-0.0231278 0.0105408 0)
(-0.0254542 0.0107136 0)
(-0.027804 0.0108206 0)
(-0.030164 0.0108639 0)
(-0.0325215 0.0108456 0)
(-0.0348639 0.0107672 0)
(-0.0371789 0.0106305 0)
(-0.0394545 0.0104366 0)
(-0.0416787 0.0101866 0)
(-0.04384 0.00988153 0)
(-0.0459268 0.00952201 0)
(-0.0479278 0.00910882 0)
(-0.0498317 0.00864265 0)
(-0.0516278 0.00812432 0)
(-0.0533051 0.00755477 0)
(-0.0548534 0.00693518 0)
(-0.0562625 0.00626704 0)
(-0.0575227 0.00555219 0)
(-0.0586248 0.00479291 0)
(-0.0595601 0.00399194 0)
(-0.0603207 0.00315257 0)
(-0.0608993 0.00227864 0)
(-0.0612895 0.00137457 0)
(-0.0614861 0.000445379 0)
(-0.0614847 -0.000503325 0)
(-0.0612822 -0.00146535 0)
(-0.0608768 -0.00243394 0)
(-0.0602681 -0.00340184 0)
(-0.0594571 -0.00436135 0)
(-0.0584466 -0.00530437 0)
(-0.0572406 -0.0062225 0)
(-0.0558451 -0.00710713 0)
(-0.0542677 -0.00794958 0)
(-0.0525176 -0.00874115 0)
(-0.0506058 -0.00947332 0)
(-0.0485449 -0.0101378 0)
(-0.046349 -0.0107268 0)
(-0.0440338 -0.0112331 0)
(-0.0416163 -0.0116499 0)
(-0.0391148 -0.0119717 0)
(-0.0365487 -0.0121935 0)
(-0.0339381 -0.0123118 0)
(-0.031304 -0.0123238 0)
(-0.0286676 -0.0122286 0)
(-0.0260504 -0.0120261 0)
(-0.0234739 -0.011718 0)
(-0.0209589 -0.0113074 0)
(-0.0185258 -0.010799 0)
(-0.0161937 -0.010199 0)
(-0.0139808 -0.00951521 0)
(-0.0119034 -0.00875719 0)
(-0.00997573 -0.00793603 0)
(-0.00821014 -0.00706453 0)
(-0.00661625 -0.00615723 0)
(-0.00520094 -0.00523048 0)
(-0.00396806 -0.00430252 0)
(-0.0029182 -0.00339368 0)
(-0.00204851 -0.00252654 0)
(-0.00135258 -0.0017262 0)
(-0.000820318 -0.00102064 0)
(-0.000437828 -0.000441147 0)
(-0.00018722 -2.26729e-05 0)
(-4.85049e-05 0.000195561 0)
(-2.30379e-06 0.000166725 0)
(-3.53065e-05 0.000271641 0)
(-0.00025 0.0010542 0)
(-0.000730949 0.0019943 0)
(-0.0014431 0.00302927 0)
(-0.00236958 0.00411104 0)
(-0.00350194 0.00520114 0)
(-0.00482947 0.00626943 0)
(-0.00633981 0.00729305 0)
(-0.00801983 0.00825521 0)
(-0.00985568 0.00914401 0)
(-0.0118329 0.00995156 0)
(-0.0139367 0.0106731 0)
(-0.0161519 0.0113062 0)
(-0.0184635 0.0118504 0)
(-0.0208563 0.0123064 0)
(-0.0233154 0.0126758 0)
(-0.025826 0.0129608 0)
(-0.0283736 0.0131637 0)
(-0.0309441 0.0132872 0)
(-0.0335235 0.0133335 0)
(-0.0360982 0.0133051 0)
(-0.0386549 0.0132039 0)
(-0.0411805 0.0130316 0)
(-0.043662 0.0127898 0)
(-0.0460868 0.0124797 0)
(-0.0484423 0.0121024 0)
(-0.0507162 0.0116588 0)
(-0.0528963 0.0111499 0)
(-0.0549708 0.0105766 0)
(-0.0569279 0.00993985 0)
(-0.058756 0.00924091 0)
(-0.060444 0.00848127 0)
(-0.061981 0.00766281 0)
(-0.0633567 0.00678784 0)
(-0.0645612 0.00585917 0)
(-0.0655852 0.00488019 0)
(-0.0664202 0.00385493 0)
(-0.0670583 0.00278807 0)
(-0.0674928 0.00168498 0)
(-0.0677179 0.000551747 0)
(-0.0677289 -0.000604841 0)
(-0.0675223 -0.00177731 0)
(-0.0670963 -0.00295753 0)
(-0.0664502 -0.00413678 0)
(-0.065585 -0.00530577 0)
(-0.0645034 -0.00645478 0)
(-0.0632096 -0.00757373 0)
(-0.0617099 -0.0086523 0)
(-0.0600122 -0.00968002 0)
(-0.058126 -0.0106465 0)
(-0.0560629 -0.0115414 0)
(-0.0538362 -0.012355 0)
(-0.0514609 -0.0130776 0)
(-0.0489534 -0.0137006 0)
(-0.0463319 -0.0142161 0)
(-0.0436157 -0.014617 0)
(-0.0408254 -0.0148975 0)
(-0.0379826 -0.0150531 0)
(-0.0351097 -0.0150808 0)
(-0.0322293 -0.0149789 0)
(-0.0293647 -0.0147475 0)
(-0.0265388 -0.0143886 0)
(-0.0237742 -0.0139057 0)
(-0.0210929 -0.0133044 0)
(-0.0185158 -0.0125921 0)
(-0.0160626 -0.011778 0)
(-0.0137511 -0.0108736 0)
(-0.0115974 -0.00989202 0)
(-0.00961505 -0.00884849 0)
(-0.00781513 -0.00776027 0)
(-0.00620583 -0.00664664 0)
(-0.00479222 -0.00552904 0)
(-0.00357606 -0.00443116 0)
(-0.00255563 -0.00337911 0)
(-0.00172565 -0.00240161 0)
(-0.00107722 -0.00153028 0)
(-0.000597661 -0.000800034 0)
(-0.000270372 -0.000249304 0)
(-7.80861e-05 7.94892e-05 0)
(-6.84736e-06 0.000136785 0)
(-4.1941e-05 0.00040813 0)
(-0.000292175 0.00144943 0)
(-0.000847414 0.00263567 0)
(-0.00166271 0.00390473 0)
(-0.0027151 0.00520842 0)
(-0.00399232 0.00650777 0)
(-0.00548031 0.00777203 0)
(-0.00716384 0.00897769 0)
(-0.00902739 0.0101073 0)
(-0.0110552 0.0111486 0)
(-0.0132311 0.0120933 0)
(-0.0155389 0.0129363 0)
(-0.0179625 0.0136754 0)
(-0.0204856 0.0143098 0)
(-0.0230922 0.0148406 0)
(-0.0257665 0.0152695 0)
(-0.028493 0.015599 0)
(-0.0312565 0.0158318 0)
(-0.0340419 0.0159706 0)
(-0.0368348 0.0160182 0)
(-0.0396207 0.015977 0)
(-0.0423856 0.0158495 0)
(-0.0451155 0.0156376 0)
(-0.047797 0.0153429 0)
(-0.0504165 0.0149669 0)
(-0.0529609 0.014511 0)
(-0.055417 0.0139761 0)
(-0.0577721 0.0133635 0)
(-0.0600133 0.0126742 0)
(-0.0621283 0.0119095 0)
(-0.0641049 0.0110709 0)
(-0.0659312 0.0101603 0)
(-0.0675956 0.00917986 0)
(-0.0690872 0.00813247 0)
(-0.0703954 0.00702148 0)
(-0.0715104 0.00585098 0)
(-0.0724229 0.00462575 0)
(-0.0731248 0.00335137 0)
(-0.0736086 0.00203421 0)
(-0.0738682 0.00068148 0)
(-0.0738984 -0.000698809 0)
(-0.0736955 -0.00209784 0)
(-0.0732571 -0.00350603 0)
(-0.0725825 -0.00491309 0)
(-0.0716725 -0.00630812 0)
(-0.0705296 -0.00767967 0)
(-0.0691582 -0.00901588 0)
(-0.0675645 -0.0103046 0)
(-0.0657566 -0.0115335 0)
(-0.0637444 -0.0126904 0)
(-0.0615399 -0.0137631 0)
(-0.0591569 -0.0147399 0)
(-0.0566109 -0.0156097 0)
(-0.0539193 -0.0163621 0)
(-0.051101 -0.0169877 0)
(-0.0481766 -0.0174782 0)
(-0.0451677 -0.0178266 0)
(-0.0420971 -0.0180275 0)
(-0.0389886 -0.0180772 0)
(-0.0358665 -0.0179736 0)
(-0.0327554 -0.0177167 0)
(-0.0296799 -0.0173086 0)
(-0.0266644 -0.0167534 0)
(-0.0237326 -0.0160574 0)
(-0.020907 -0.0152293 0)
(-0.0182092 -0.0142799 0)
(-0.0156586 -0.0132224 0)
(-0.0132731 -0.0120721 0)
(-0.0110677 -0.0108468 0)
(-0.00905523 -0.00956644 0)
(-0.00724525 -0.00825337 0)
(-0.0056443 -0.00693226 0)
(-0.00425551 -0.00563022 0)
(-0.0030785 -0.00437689 0)
(-0.00210933 -0.0032046 0)
(-0.00134046 -0.00214855 0)
(-0.000760597 -0.00124713 0)
(-0.000354507 -0.000541999 0)
(-0.000107642 -7.84304e-05 0)
(-1.12615e-05 9.18164e-05 0)
(-4.83261e-05 0.000565785 0)
(-0.000333178 0.0019021 0)
(-0.000961216 0.00336512 0)
(-0.00187803 0.00489384 0)
(-0.00305475 0.00644058 0)
(-0.00447537 0.00796655 0)
(-0.00612241 0.00944094 0)
(-0.00797771 0.0108401 0)
(-0.0100233 0.0121465 0)
(-0.0122412 0.0133477 0)
(-0.0146138 0.0144354 0)
(-0.0171234 0.0154045 0)
(-0.0197525 0.0162529 0)
(-0.0224839 0.0169802 0)
(-0.0253007 0.0175874 0)
(-0.0281862 0.0180767 0)
(-0.0311243 0.0184507 0)
(-0.0340989 0.0187127 0)
(-0.0370945 0.0188655 0)
(-0.0400957 0.0189123 0)
(-0.0430877 0.0188559 0)
(-0.0460557 0.0186987 0)
(-0.0489852 0.018443 0)
(-0.051862 0.0180908 0)
(-0.0546719 0.0176436 0)
(-0.0574012 0.0171029 0)
(-0.0600362 0.0164701 0)
(-0.0625632 0.0157463 0)
(-0.064969 0.0149329 0)
(-0.0672405 0.0140315 0)
(-0.0693648 0.0130438 0)
(-0.0713295 0.011972 0)
(-0.0731223 0.0108189 0)
(-0.0747317 0.0095877 0)
(-0.0761464 0.00828241 0)
(-0.077356 0.00690779 0)
(-0.0783508 0.00546945 0)
(-0.079122 0.00397387 0)
(-0.0796616 0.00242846 0)
(-0.0799628 0.000841579 0)
(-0.0800201 -0.000777481 0)
(-0.0798294 -0.00241851 0)
(-0.0793879 -0.00407042 0)
(-0.0786944 -0.00572132 0)
(-0.0777495 -0.00735859 0)
(-0.0765555 -0.00896899 0)
(-0.0751167 -0.0105388 0)
(-0.0734392 -0.0120539 0)
(-0.0715311 -0.0135001 0)
(-0.0694026 -0.0148632 0)
(-0.0670658 -0.016129 0)
(-0.0645349 -0.017284 0)
(-0.0618261 -0.0183152 0)
(-0.0589574 -0.0192105 0)
(-0.0559484 -0.0199588 0)
(-0.0528206 -0.0205504 0)
(-0.0495969 -0.020977 0)
(-0.0463012 -0.0212322 0)
(-0.0429586 -0.0213114 0)
(-0.0395949 -0.0212121 0)
(-0.0362363 -0.0209342 0)
(-0.0329091 -0.0204796 0)
(-0.0296394 -0.0198532 0)
(-0.0264526 -0.0190619 0)
(-0.0233734 -0.0181155 0)
(-0.020425 -0.0170265 0)
(-0.0176288 -0.0158097 0)
(-0.0150043 -0.0144829 0)
(-0.0125686 -0.0130663 0)
(-0.010336 -0.0115827 0)
(-0.00831802 -0.0100575 0)
(-0.00652269 -0.00851875 0)
(-0.00495475 -0.0069969 0)
(-0.00361535 -0.00552523 0)
(-0.00250203 -0.00413965 0)
(-0.00160879 -0.00287893 0)
(-0.000925798 -0.00178481 0)
(-0.000439197 -0.00090206 0)
(-0.000137045 -0.000278579 0)
(-1.55342e-05 3.19506e-05 0)
(-5.44793e-05 0.000743973 0)
(-0.000372994 0.00241084 0)
(-0.00107214 0.00418091 0)
(-0.00208848 0.00599474 0)
(-0.00338744 0.00780568 0)
(-0.00494935 0.00957566 0)
(-0.00675337 0.0112744 0)
(-0.00877834 0.0128785 0)
(-0.0110038 0.0143709 0)
(-0.0134096 0.0157392 0)
(-0.0159765 0.0169755 0)
(-0.0186851 0.018075 0)
(-0.0215168 0.0190359 0)
(-0.0244533 0.019858 0)
(-0.0274768 0.020543 0)
(-0.0305698 0.0210932 0)
(-0.0337155 0.0215117 0)
(-0.0368972 0.021802 0)
(-0.0400986 0.0219674 0)
(-0.0433041 0.0220114 0)
(-0.0464979 0.021937 0)
(-0.0496649 0.021747 0)
(-0.0527901 0.0214438 0)
(-0.0558585 0.0210296 0)
(-0.0588557 0.0205062 0)
(-0.0617672 0.0198752 0)
(-0.0645788 0.0191381 0)
(-0.0672762 0.0182964 0)
(-0.0698457 0.0173516 0)
(-0.0722736 0.0163054 0)
(-0.0745463 0.01516 0)
(-0.0766509 0.0139178 0)
(-0.0785745 0.0125821 0)
(-0.0803048 0.0111566 0)
(-0.0818303 0.00964593 0)
(-0.0831397 0.00805551 0)
(-0.0842227 0.00639178 0)
(-0.0850699 0.00466216 0)
(-0.0856727 0.0028751 0)
(-0.086024 0.00104015 0)
(-0.0861174 -0.000832105 0)
(-0.0859484 -0.00273002 0)
(-0.0855137 -0.00464097 0)
(-0.0848116 -0.0065514 0)
(-0.0838424 -0.0084469 0)
(-0.082608 -0.0103124 0)
(-0.0811123 -0.0121322 0)
(-0.0793613 -0.0138902 0)
(-0.0773631 -0.0155701 0)
(-0.0751277 -0.0171556 0)
(-0.0726675 -0.0186307 0)
(-0.0699969 -0.0199795 0)
(-0.0671324 -0.0211873 0)
(-0.0640926 -0.0222399 0)
(-0.0608979 -0.0231245 0)
(-0.0575706 -0.0238298 0)
(-0.0541345 -0.0243462 0)
(-0.0506148 -0.0246659 0)
(-0.047038 -0.0247835 0)
(-0.0434313 -0.0246959 0)
(-0.0398225 -0.0244025 0)
(-0.0362397 -0.0239055 0)
(-0.0327108 -0.0232098 0)
(-0.0292633 -0.0223234 0)
(-0.0259236 -0.021257 0)
(-0.022717 -0.0200246 0)
(-0.019667 -0.0186431 0)
(-0.0167952 -0.0171323 0)
(-0.0141206 -0.015515 0)
(-0.0116596 -0.013817 0)
(-0.00942546 -0.0120667 0)
(-0.00742811 -0.0102955 0)
(-0.00567407 -0.0085375 0)
(-0.00416618 -0.00682955 0)
(-0.00290365 -0.00521118 0)
(-0.00188209 -0.0037247 0)
(-0.00109318 -0.00241524 0)
(-0.000524424 -0.0013306 0)
(-0.000166323 -0.000521221 0)
(-1.96881e-05 -4.26668e-05 0)
(-6.04176e-05 0.000942074 0)
(-0.00041163 0.00297419 0)
(-0.00118008 0.00508107 0)
(-0.00229368 0.0072052 0)
(-0.00371242 0.00930139 0)
(-0.00541305 0.0113327 0)
(-0.00737143 0.0132699 0)
(-0.00956342 0.0150905 0)
(-0.011966 0.0167778 0)
(-0.0145571 0.0183204 0)
(-0.0173152 0.0197108 0)
(-0.0202199 0.0209449 0)
(-0.023251 0.0220211 0)
(-0.0263894 0.0229402 0)
(-0.0296161 0.0237039 0)
(-0.0329131 0.0243154 0)
(-0.0362627 0.0247781 0)
(-0.0396477 0.0250958 0)
(-0.0430513 0.0252724 0)
(-0.0464572 0.0253116 0)
(-0.0498494 0.0252167 0)
(-0.0532121 0.0249909 0)
(-0.0565298 0.0246367 0)
(-0.0597874 0.0241565 0)
(-0.0629696 0.0235524 0)
(-0.0660615 0.022826 0)
(-0.0690485 0.0219791 0)
(-0.071916 0.0210133 0)
(-0.0746494 0.0199303 0)
(-0.0772346 0.0187321 0)
(-0.0796576 0.0174211 0)
(-0.0819048 0.0160002 0)
(-0.0839627 0.014473 0)
(-0.0858186 0.0128436 0)
(-0.0874602 0.0111173 0)
(-0.0888756 0.00930028 0)
(-0.0900539 0.00739973 0)
(-0.0909851 0.00542402 0)
(-0.09166 0.00338266 0)
(-0.0920706 0.00128636 0)
(-0.0922101 -0.000852942 0)
(-0.0920733 -0.00302217 0)
(-0.0916562 -0.00520712 0)
(-0.0909567 -0.00739252 0)