/*--------------------------------*- C++ -*----------------------------------*\
| =========                 |                                                 |
| \\      /  F ield         | OpenFOAM: The Open Source CFD Toolbox           |
|  \\    /   O peration     | Version:  2506                                  |
|   \\  /    A nd           | Website:  www.openfoam.com                      |
|    \\/     M anipulation  |                                                 |
\*---------------------------------------------------------------------------*/
FoamFile
{
    version     2.0;
    format      ascii;
    arch        "LSB;label=32;scalar=64";
    class       volScalarField;
    location    "1.275";
    object      p;
}
// * * * * * * * * * * * * * * * * * * * * * * * * * * * * * * * * * * * * * //

dimensions      [0 2 -2 0 0 0 0];

internalField   nonuniform List<scalar> 
6400
(
1.15227e-08
-5.1315e-06
-6.81898e-05
-0.00018594
-0.000343818
-0.000529157
-0.00073098
-0.000939984
-0.00114858
-0.00135068
-0.00154152
-0.00171737
-0.00187539
-0.00201343
-0.00212989
-0.00222361
-0.00229375
-0.00233973
-0.00236118
-0.00235784
-0.00232956
-0.00227627
-0.00219794
-0.00209459
-0.0019663
-0.0018132
-0.00163546
-0.00143334
-0.00120719
-0.000957448
-0.000684705
-0.000389697
-7.3327e-05
0.000263322
0.000618966
0.000992087
0.00138094
0.00178356
0.00219772
0.002621
0.0030507
0.00348393
0.00391762
0.00434852
0.00477324
0.00518827
0.00559008
0.00597511
0.00633985
0.0066809
0.00699498
0.00727903
0.00753026
0.00774622
0.00792483
0.00806448
0.00816398
0.00822267
0.00824042
0.00821771
0.00815556
0.00805564
0.00792016
0.00775197
0.00755443
0.00733147
0.00708752
0.00682754
0.00655695
0.00628161
0.0060078
0.00574222
0.00549191
0.00526422
0.00506672
0.00490693
0.00479164
0.00472608
0.0047126
0.00473889
2.97662e-06
-2.16646e-06
-5.75727e-05
-0.000157147
-0.000289227
-0.000444668
-0.000615129
-0.000793082
-0.000972068
-0.00114672
-0.00131264
-0.00146631
-0.00160494
-0.00172633
-0.0018288
-0.00191109
-0.00197224
-0.00201155
-0.0020285
-0.00202274
-0.00199402
-0.0019422
-0.00186717
-0.00176894
-0.00164753
-0.00150305
-0.00133566
-0.00114562
-0.00093325
-0.000699006
-0.000443463
-0.000167339
0.000128496
0.000442996
0.000774934
0.00112287
0.00148515
0.00185993
0.00224513
0.00263848
0.00303748
0.00343947
0.00384157
0.00424082
0.00463408
0.00501816
0.00538981
0.00574578
0.0060829
0.00639804
0.00668827
0.0069508
0.00718315
0.00738312
0.00754889
0.00767901
0.00777249
0.00782879
0.00784787
0.00783023
0.0077769
0.00768946
0.00757005
0.00742129
0.00724635
0.00704886
0.00683291
0.00660305
0.00636421
0.00612172
0.0058812
0.00564856
0.00542992
0.0052315
0.00505949
0.00491974
0.00481712
0.0047552
0.00473862
0.00476509
6.29513e-05
5.05045e-05
-4.89045e-06
-9.6647e-05
-0.000215163
-0.000353226
-0.000504157
-0.000661744
-0.000820506
-0.000975771
-0.00112362
-0.00126083
-0.00138478
-0.00149337
-0.00158495
-0.00165824
-0.00171227
-0.00174627
-0.00175968
-0.00175208
-0.00172317
-0.00167274
-0.00160068
-0.00150693
-0.00139149
-0.00125444
-0.00109593
-0.000916167
-0.000715484
-0.000494301
-0.000253169
7.22555e-06
0.000286058
0.000582335
0.000894888
0.00122235
0.00156317
0.00191558
0.00227766
0.00264725
0.00302201
0.00339944
0.00377687
0.00415148
0.00452038
0.00488057
0.00522904
0.00556277
0.00587879
0.00617421
0.0064463
0.00669251
0.00691053
0.00709836
0.00725432
0.00737712
0.00746587
0.00752012
0.00753987
0.00752565
0.00747847
0.00739985
0.00729183
0.00715692
0.00699808
0.00681871
0.00662265
0.0064141
0.00619764
0.00597812
0.00576066
0.00555056
0.00535324
0.00517411
0.00501848
0.00489129
0.00479659
0.00473768
0.00472164
0.00475211
0.000178759
0.000147962
8.40212e-05
-8.36988e-06
-0.000122475
-0.000252314
-0.000392315
-0.000537335
-0.00068277
-0.000824614
-0.00095946
-0.00108445
-0.00119723
-0.00129589
-0.00137889
-0.00144503
-0.00149336
-0.00152312
-0.00153376
-0.00152484
-0.00149604
-0.00144711
-0.00137791
-0.00128835
-0.00117842
-0.00104817
-0.000897686
-0.000727176
-0.000536924
-0.000327321
-9.88749e-05
0.000147778
0.000411861
0.000692447
0.000988432
0.00129853
0.00162127
0.001955
0.00229788
0.00264789
0.00300283
0.0033603
0.00371779
0.00407265
0.00442211
0.00476336
0.00509355
0.0054098
0.00570931
0.00598936
0.00624736
0.0064809
0.00668781
0.00686621
0.00701453
0.00713155
0.00721645
0.00726883
0.00728874
0.00727669
0.00723367
0.00716117
0.00706112
0.00693592
0.00678839
0.00662175
0.00643961
0.00624592
0.00604492
0.00584111
0.0056392
0.00544401
0.00526041
0.00509325
0.00494725
0.00482686
0.00473578
0.0046774
0.0046597
0.00468823
0.000337337
0.000279434
0.00020035
0.000101656
-1.36046e-05
-0.000140534
-0.000274519
-0.000411402
-0.000547408
-0.000679203
-0.000803909
-0.000919084
-0.00102268
-0.00111304
-0.00118879
-0.00124885
-0.00129232
-0.00131854
-0.00132694
-0.00131712
-0.00128874
-0.00124156
-0.0011754
-0.00109015
-0.000985767
-0.000862261
-0.000719703
-0.000558249
-0.000378141
-0.000179724
3.6548e-05
0.000270101
0.000520218
0.00078604
0.00106654
0.00136052
0.00166659
0.0019832
0.00230863
0.00264096
0.0029781
0.00331777
0.0036576
0.00399504
0.0043275
0.00465227
0.00496661
0.00526781
0.00555317
0.00582009
0.00606608
0.00628886
0.00648635
0.00665674
0.00679853
0.00691057
0.00699208
0.00704268
0.00706243
0.00705184
0.00701187
0.00694395
0.00684995
0.00673214
0.00659322
0.00643626
0.00626467
0.00608215
0.00589268
0.00570044
0.00550977
0.00532508
0.00515079
0.00499127
0.00485078
0.00473333
0.00464238
0.00458125
0.00455737
0.004576
0.000526711
0.000436304
0.000337294
0.000227812
0.000106904
-2.15061e-05
-0.000153622
-0.000286183
-0.000416211
-0.000541017
-0.000658247
-0.000765892
-0.000862263
-0.000945959
-0.00101582
-0.00107092
-0.00111048
-0.00113391
-0.00114071
-0.00113049
-0.00110293
-0.00105778
-0.000994876
-0.000914071
-0.000815292
-0.00069851
-0.000563756
-0.000411146
-0.000240873
-5.32181e-05
0.000151424
0.000372549
0.000609517
0.000861533
0.00112766
0.00140678
0.0016976
0.00199868
0.0023084
0.00262492
0.00294626
0.00327027
0.00359466
0.00391702
0.00423484
0.00454553
0.00484645
0.00513496
0.00540846
0.00566444
0.00590049
0.0061144
0.00630413
0.00646793
0.00660435
0.00671224
0.00679087
0.00683985
0.00685924
0.00684952
0.00681164
0.00674694
0.00665723
0.0065447
0.00641194
0.00626185
0.00609769
0.00592296
0.00574139
0.00555691
0.00537351
0.00519528
0.00502625
0.00487041
0.00473159
0.00461343
0.00451916
0.00445191
0.00441762
0.00442013
0.000736418
0.00061045
0.000488261
0.000364564
0.000234403
0.000100884
-3.28847e-05
-0.000164457
-0.000291574
-0.000412167
-0.000524401
-0.000626705
-0.000717751
-0.000796426
-0.000861804
-0.000913129
-0.000949784
-0.000971264
-0.000977148
-0.000967088
-0.000940798
-0.000898046
-0.000838643
-0.000762442
-0.000669331
-0.000559248
-0.000432179
-0.00028819
-0.000127418
4.9926e-05
0.000243521
0.000452931
0.000677596
0.000916805
0.0011697
0.00143526
0.00171231
0.00199947
0.00229522
0.00259784
0.00290542
0.00321591
0.00352711
0.00383671
0.00414227
0.00444128
0.00473118
0.00500937
0.00527333
0.00552058
0.00574878
0.00595571
0.00613941
0.0062981
0.00643035
0.00653503
0.00661137
0.006659
0.00667795
0.00666866
0.00663203
0.00656936
0.00648238
0.00637321
0.00624432
0.00609851
0.00593888
0.00576878
0.00559173
0.00541141
0.0052316
0.00505605
0.00488851
0.00473263
0.00459189
0.00446959
0.00436875
0.00429228
0.00424409
0.00422614
0.000957271
0.000794246
0.000646814
0.000506449
0.000364336
0.000222901
8.4684e-05
-4.86115e-05
-0.000175386
-0.000294138
-0.000403541
-0.000502455
-0.00058991
-0.00066509
-0.000727318
-0.000776033
-0.000810778
-0.000831161
-0.000836852
-0.000827561
-0.000803045
-0.000763089
-0.0007075
-0.000636115
-0.000548791
-0.000445433
-0.000325985
-0.000190449
-3.88964e-05
0.000128532
0.000311594
0.000509936
0.000723071
0.000950383
0.00119111
0.00144433
0.00170894
0.00198368
0.0022671
0.00255757
0.00285328
0.00315225
0.00345237
0.00375138
0.00404692
0.00433651
0.00461765
0.00488777
0.00514438
0.00538503
0.00560737
0.0058092
0.00598853
0.00614359
0.00627291
0.00637535
0.00645011
0.00649677
0.00651534
0.00650621
0.00647022
0.00640862
0.00632308
0.00621563
0.00608866
0.00594487
0.00578724
0.00561897
0.00544343
0.00526412
0.00508459
0.00490837
0.00473896
0.00457971
0.00443384
0.00430434
0.00419404
0.00410565
0.00404084
0.00399954
0.00118135
0.000980767
0.000806904
0.000648202
0.000492185
0.000340725
0.000195878
5.8694e-05
-6.98355e-05
-0.000188746
-0.000297184
-0.000394424
-0.000479845
-0.000552935
-0.000613268
-0.000660493
-0.00069431
-0.000714456
-0.000720698
-0.00071282
-0.000690623
-0.000653913
-0.000602493
-0.000536187
-0.000454829
-0.000358282
-0.000246444
-0.000119252
2.32988e-05
0.000181144
0.000354117
0.000541951
0.000744252
0.000960496
0.00119002
0.00143199
0.00168541
0.00194911
0.00222172
0.00250168
0.00278727
0.00307659
0.00336759
0.00365806
0.00394567
0.00422799
0.00450251
0.00476672
0.00501809
0.00525418
0.00547261
0.00567117
0.00584781
0.00600073
0.00612842
0.00622968
0.00630366
0.00634989
0.00636831
0.00635926
0.00632352
0.00626229
0.00617715
0.00607007
0.00594337
0.00579966
0.00564183
0.00547296
0.0052963
0.00511519
0.00493302
0.00475315
0.00457885
0.00441329
0.00425943
0.00412002
0.00399776
0.00389518
0.00381168
0.00374517
0.00140179
0.00116377
0.000962907
0.000784816
0.000613534
0.000450492
0.000297349
0.000154565
2.25722e-05
-9.81636e-05
-0.000207232
-0.000304295
-0.00038908
-0.000461368
-0.000520984
-0.000567784
-0.000601631
-0.000622398
-0.000629955
-0.000624163
-0.000604864
-0.000571888
-0.000525043
-0.000464134
-0.000388974
-0.000299385
-0.000195204
-7.63019e-05
5.74014e-05
0.000205922
0.000369179
0.000546994
0.000739075
0.000944994
0.00116419
0.00139592
0.0016393
0.00189322
0.00215641
0.00242739
0.00270451
0.00298594
0.00326967
0.00355353
0.00383521
0.0041123
0.0043823
0.00464267
0.00489087
0.00512441
0.00534088
0.005538
0.00571367
0.00586602
0.00599344
0.00609469
0.00616882
0.0062153
0.00623399
0.00622516
0.00618951
0.00612816
0.00604266
0.00593488
0.0058071
0.00566184
0.00550191
0.00533031
0.0051502
0.00496481
0.00477741
0.00459121
0.00440936
0.00423485
0.00407046
0.00391874
0.00378234
0.00366367
0.00355993
0.00346708
0.00161261
0.00133761
0.00110962
0.000911534
0.000724096
0.000548373
0.000385692
0.000235976
9.9144e-05
-2.4792e-05
-0.000135836
-0.000234023
-0.000319413
-0.000392071
-0.000452064
-0.000499446
-0.000534255
-0.000556495
-0.00056614
-0.000563126
-0.000547339
-0.000518626
-0.000476803
-0.000421667
-0.000352995
-0.000270566
-0.000174153
-6.35564e-05
6.13814e-05
0.000200761
0.000354595
0.000522801
0.000705187
0.000901432
0.00111108
0.00133348
0.00156784
0.00181315
0.00206821
0.00233164
0.00260184
0.00287702
0.00315523
0.00343432
0.003712
0.00398584
0.00425332
0.00451189
0.00475895
0.00499196
0.00520843
0.00540599
0.00558246
0.00573586
0.00586452
0.00596705
0.00604243
0.00609002
0.00610958
0.00610131
0.00606582
0.00600415
0.00591777
0.0058085
0.00567854
0.00553038
0.00536675
0.0051906
0.00500501
0.00481315
0.0046182
0.0044233
0.00423149
0.00404566
0.00386847
0.00370233
0.00354989
0.00341354
0.00328836
0.00316847
0.00180845
0.00149718
0.0012422
0.00102386
0.00081974
0.000630595
0.000457475
0.000299813
0.00015706
2.88069e-05
-8.53409e-05
-0.000185775
-0.000272865
-0.00034695
-0.00040833
-0.000457253
-0.000493922
-0.000518476
-0.00053099
-0.000531462
-0.000519824
-0.000495946
-0.000459649
-0.000410712
-0.000348878
-0.000273873
-0.00018541
-8.32111e-05
3.29663e-05
0.000163308
0.000307921
0.000466831
0.000639956
0.000827081
0.00102785
0.00124172
0.00146799
0.00170574
0.00195387
0.00221105
0.00247575
0.00274625
0.0030206
0.00329668
0.00357219
0.00384469
0.00411164
0.00437041
0.00461837
0.00485286
0.00507131
0.00527126
0.00545038
0.0056066
0.00573809
0.00584337
0.00592126
0.00597102
0.0059923
0.00598516
0.00595014
0.00588818
0.00580067
0.00568939
0.00555645
0.00540431
0.00523566
0.00505339
0.00486056
0.00466031
0.00445577
0.00425004
0.00404611
0.00384683
0.00365479
0.00347234
0.0033022
0.0031468
0.0029992
0.00285179
0.00198446
0.00163777
0.00135616
0.00111755
0.000896483
0.000693464
0.00050928
0.000342925
0.000193415
5.99425e-05
-5.8253e-05
-0.000161896
-0.000251653
-0.000328119
-0.000391814
-0.000443185
-0.000482588
-0.000510286
-0.000526443
-0.000531127
-0.000524311
-0.000505882
-0.000475659
-0.000433405
-0.000378823
-0.000311582
-0.000231322
-0.000137691
-3.03629e-05
9.09446e-05
0.000226447
0.00037628
0.000540471
0.000718915
0.000911363
0.00111739
0.00133638
0.00156752
0.00180977
0.00206191
0.00232245
0.0025897
0.00286176
0.0031365
0.00341163
0.00368466
0.00395302
0.004214
0.00446489
0.00470292
0.00492541
0.00512976
0.0053135
0.00547441
0.00561052
0.00572016
0.00580204
0.00585525
0.00587929
0.00587411
0.00584013
0.00577818
0.00568958
0.00557602
0.00543958
0.00528266
0.00510791
0.00491824
0.00471668
0.00450635
0.0042904
0.00407193
0.00385395
0.00363929
0.00343055
0.00323008
0.00304072
0.00286503
0.00269416
0.00251883
0.0021362
0.00175499
0.00144726
0.00118854
0.00095049
0.000733357
0.000537712
0.000362136
0.000205235
6.58253e-05
-5.72018e-05
-0.000164879
-0.000258148
-0.000337856
-0.000404738
-0.000459415
-0.000502392
-0.000534049
-0.000554637
-0.000564278
-0.000562981
-0.000550656
-0.000527115
-0.000492092
-0.00044524
-0.00038617
-0.000314457
-0.000229662
-0.000131367
-1.91841e-05
0.000107211
0.000248068
0.000403533
0.000573617
0.000758185
0.000956922
0.00116932
0.00139465
0.00163199
0.00188017
0.00213776
0.00240313
0.00267437
0.00294938
0.00322584
0.00350124
0.00377292
0.00403812
0.00429399
0.00453767
0.00476633
0.00497719
0.00516765
0.00533529
0.00547795
0.0055938
0.00568135
0.00573952
0.00576764
0.00576551
0.00573341
0.00567206
0.00558268
0.00546687
0.00532667
0.00516443
0.0049828
0.00478468
0.00457311
0.00435126
0.0041223
0.00388939
0.00365559
0.00342379
0.00319665
0.00297655
0.00276657
0.00256943
0.00237446
0.00217079
0.0022595
0.00184476
0.00151151
0.00123299
0.000978052
0.000746742
0.000539423
0.000354272
0.000189506
4.35901e-05
-8.4907e-05
-0.000197321
-0.00029486
-0.000378596
-0.000449468
-0.000508271
-0.000555645
-0.00059207
-0.000617873
-0.000633235
-0.0006382
-0.000632684
-0.000616483
-0.000589297
-0.000550731
-0.000500334
-0.000437602
-0.000362008
-0.000273033
-0.000170181
-5.30111e-05
7.88489e-05
0.000225668
0.000387581
0.000564571
0.000756438
0.000962788
0.00118301
0.00141625
0.00166142
0.00191717
0.00218189
0.00245371
0.00273052
0.00300998
0.00328952
0.00356644
0.00383786
0.00410082
0.00435232
0.00458936
0.00480898
0.00500839
0.00518497
0.00533634
0.00546045
0.0055556
0.00562049
0.00565428
0.00565658
0.0056275
0.00556763
0.00547806
0.00536033
0.0052164
0.00504858
0.00485954
0.00465218
0.00442958
0.00419497
0.0039516
0.00370273
0.00345149
0.00320093
0.00295378
0.00271256
0.00248059
0.00226087
0.00204094
0.00180835
0.00235043
0.00190318
0.00154509
0.00124718
0.000975601
0.000730196
0.000511121
0.000316174
0.000143209
-9.6538e-06
-0.00014416
-0.000261918
-0.000364391
-0.000452878
-0.000528508
-0.000592224
-0.00064479
-0.000686784
-0.000718607
-0.000740488
-0.000752494
-0.000754537
-0.000746395
-0.00072773
-0.000698091
-0.000656956
-0.000603741
-0.000537822
-0.000458574
-0.000365385
-0.00025769
-0.000134984
3.12753e-06
0.000156908
0.000326468
0.000511738
0.000712445
0.000928084
0.00115791
0.0014009
0.00165578
0.00192099
0.00219467
0.00247472
0.00275877
0.00304422
0.00332826
0.00360793
0.00388013
0.00414169
0.00438942
0.00462019
0.00483096
0.00501887
0.00518131
0.00531599
0.00542093
0.00549462
0.00553597
0.00554438
0.00551978
0.00546259
0.00537376
0.00525473
0.00510739
0.00493404
0.00473732
0.00452018
0.00428575
0.00403735
0.00377836
0.00351214
0.00324202
0.00297116
0.00270248
0.00243867
0.00218337
0.0019399
0.00169405
0.00143181
0.00240528
0.00192656
0.00154437
0.00122757
0.000939688
0.000680366
0.000449573
0.000244728
6.33258e-05
-9.68273e-05
-0.000237777
-0.000361411
-0.000469431
-0.000563345
-0.000644452
-0.000713839
-0.000772386
-0.000820761
-0.000859429
-0.000888656
-0.000908522
-0.000918933
-0.000919641
-0.000910258
-0.000890276
-0.000859096
-0.000816045
-0.0007604
-0.000691416
-0.000608358
-0.000510528
-0.00039729
-0.000268111
-0.000122587
3.95296e-05
0.000218308
0.000413605
0.000625035
0.000851954
0.00109344
0.00134829
0.00161498
0.00189171
0.00217636
0.00246654
0.0027596
0.00305265
0.00334261
0.00362623
0.00390017
0.00416104
0.00440547
0.00463018
0.00483205
0.00500818
0.00515598
0.00527322
0.00535808
0.00540921
0.00542576
0.00540743
0.00535446
0.00526763
0.00514827
0.00499818
0.00481963
0.00461525
0.00438803
0.00414121
0.00387821
0.00360255
0.00331777
0.0030274
0.00273481
0.00244314
0.0021553
0.00187531
0.00160686
0.00133399
0.00104113
0.00242048
0.00191138
0.00150588
0.00117075
0.000866986
0.000594014
0.000351615
0.000136854
-5.31258e-05
-0.000220834
-0.000368605
-0.000498589
-0.000612717
-0.000712689
-0.000799965
-0.00087577
-0.000941089
-0.00099667
-0.00104303
-0.00108047
-0.00110907
-0.00112872
-0.00113914
-0.00113989
-0.00113039
-0.00110997
-0.00107786
-0.00103322
-0.000975174
-0.000902867
-0.00081546
-0.000712173
-0.000592325
-0.000455362
-0.000300885
-0.000128679
6.12552e-05
0.000268663
0.000493018
0.000733504
0.000988995
0.00125804
0.00153886
0.00182936
0.00212713
0.00242945
0.00273337
0.00303567
0.00333295
0.00362167
0.00389823
0.00415901
0.00440045
0.00461912
0.00481181
0.00497562
0.00510796
0.0052067
0.00527019
0.00529728
0.00528741
0.00524057
0.00515739
0.00503901
0.00488717
0.00470406
0.00449234
0.00425505
0.00399551
0.00371729
0.0034241
0.0031197
0.00280782
0.00249214
0.00217604
0.0018627
0.00155661
0.00126185
0.000960707
0.000636008
0.00239262
0.00185426
0.00142629
0.00107345
0.000754276
0.000467987
0.000214172
-1.04543e-05
-0.000209093
-0.000384565
-0.000539484
-0.000676247
-0.000797004
-0.000903636
-0.000997761
-0.00108073
-0.00115362
-0.00121725
-0.00127219
-0.00131874
-0.00135701
-0.00138684
-0.00140792
-0.00141975
-0.00142168
-0.00141295
-0.00139268
-0.00135991
-0.00131364
-0.00125287
-0.00117662
-0.00108395
-0.000974029
-0.000846131
-0.000699697
-0.000534351
-0.000349939
-0.00014657
7.53633e-05
0.00031516
0.00057179
0.000843881
0.00112971
0.00142718
0.00173389
0.00204707
0.00236368
0.00268037
0.00299358
0.00329958
0.00359452
0.00387449
0.00413564
0.0043742
0.00458662
0.0047696
0.00492021
0.00503594
0.00511475
0.00515519
0.00515636
0.00511801
0.0050405
0.00492483
0.0047726
0.00458596
0.00436754
0.00412045
0.00384813
0.00355431
0.0032429
0.00291792
0.00258341
0.00224332
0.00190137
0.00156106
0.00122736
0.000904847
0.000573991
0.000215949
0.0023184
0.00175196
0.00130241
0.000932526
0.000598468
0.00029925
3.42629e-05
-0.000200131
-0.000407467
-0.00059087
-0.000753222
-0.000897161
-0.00102504
-0.00113892
-0.00124057
-0.00133145
-0.00141272
-0.00148528
-0.00154972
-0.00160636
-0.00165527
-0.0016963
-0.00172908
-0.00175305
-0.00176747
-0.00177148
-0.0017641
-0.00174423
-0.00171075
-0.00166249
-0.00159832
-0.00151715
-0.00141795
-0.00129984
-0.00116208
-0.00100411
-0.000825609
-0.000626522
-0.000407096
-0.000167895
9.0167e-05
0.00036581
0.000657372
0.000962809
0.0012797
0.00160524
0.0019363
0.00226942
0.00260088
0.00292671
0.00324282
0.003545
0.00382905
0.00409086
0.00432646
0.00453215
0.00470457
0.00484076
0.00493831
0.00499534
0.0050106
0.00498352
0.00491418
0.00480338
0.00465255
0.00446376
0.00423965
0.00398337
0.00369848
0.0033889
0.00305879
0.00271245
0.00235424
0.00198849
0.00161927
0.00125046
0.000887584
0.000535745
0.000173519
-0.000219667
0.00219466
0.00160139
0.00113118
0.000744961
0.000396598
8.48822e-05
-0.000190998
-0.000435026
-0.000651065
-0.000842533
-0.00101258
-0.00116407
-0.00129956
-0.00142127
-0.00153112
-0.00163067
-0.00172118
-0.00180357
-0.00187847
-0.00194621
-0.00200685
-0.00206018
-0.0021058
-0.00214307
-0.00217117
-0.00218913
-0.00219583
-0.00219006
-0.00217055
-0.00213597
-0.00208503
-0.00201644
-0.001929
-0.00182165
-0.00169343
-0.0015436
-0.00137165
-0.00117735
-0.000960767
-0.000722312
-0.00046276
-0.000183276
0.000114565
0.000428769
0.000756925
0.00109621
0.00144343
0.00179499
0.002147
0.00249529
0.00283546
0.00316302
0.0034734
0.00376206
0.00402462
0.00425689
0.00445504
0.00461564
0.00473578
0.00481314
0.00484603
0.00483351
0.00477534
0.00467204
0.00452486
0.00433577
0.00410736
0.00384284
0.00354591
0.00322068
0.00287158
0.00250324
0.00212039
0.00172777
0.00132987
0.000930994
0.000537264
0.000154376
-0.000241087
-0.000671529
0.00201836
0.00139955
0.000909693
0.000507886
0.000145826
-0.000177924
-0.000464386
-0.000717885
-0.000942605
-0.00114225
-0.00132023
-0.00147964
-0.00162321
-0.00175336
-0.00187211
-0.00198112
-0.00208173
-0.0021749
-0.00226129
-0.00234121
-0.00241471
-0.00248156
-0.00254126
-0.00259312
-0.00263621
-0.00266946
-0.00269162
-0.00270133
-0.00269717
-0.00267765
-0.00264129
-0.00258662
-0.00251223
-0.00241685
-0.00229931
-0.00215868
-0.0019942
-0.00180547
-0.00159234
-0.00135505
-0.00109422
-0.00081085
-0.000506425
-0.000182857
0.000157479
0.000511757
0.000876711
0.00124865
0.00162352
0.0019969
0.00236415
0.0027204
0.00306071
0.0033801
0.0036737
0.00393681
0.00416505
0.00435444
0.00450154
0.00460348
0.0046581
0.00466398
0.00462051
0.00452789
0.00438713
0.00420004
0.00396917
0.00369777
0.00338967
0.00304919
0.00268105
0.00229025
0.00188194
0.00146131
0.00103332
0.000602747
0.00017639
-0.000239424
-0.000670217
-0.00114035
0.00178663
0.00114364
0.000635167
0.000218567
-0.000156549
-0.000491842
-0.000788551
-0.00105134
-0.0012847
-0.00149262
-0.00167877
-0.00184646
-0.00199862
-0.0021378
-0.00226616
-0.00238545
-0.00249707
-0.00260202
-0.00270097
-0.00279423
-0.00288183
-0.00296347
-0.00303862
-0.00310648
-0.00316602
-0.00321606
-0.00325521
-0.00328198
-0.00329476
-0.0032919
-0.00327172
-0.00323254
-0.00317276
-0.00309084
-0.00298543
-0.00285532
-0.00269956
-0.00251747
-0.00230873
-0.00207334
-0.00181172
-0.00152472
-0.00121367
-0.000880387
-0.000527179
-0.000156855
0.00022728
0.000621443
0.00102141
0.00142255
0.00181992
0.00220831
0.00258236
0.00293661
0.00326565
0.00356423
0.00382734
0.00405041
0.00422935
0.0043607
0.00444172
0.00447045
0.00444583
0.00436764
0.00423663
0.00405441
0.00382343
0.00354695
0.00322893
0.00287393
0.00248698
0.00207347
0.00163901
0.0011893
0.000729807
0.000265864
-0.000195005
-0.000645774
-0.00111422
-0.0016268
0.00149672
0.000830981
0.000304982
-0.000125582
-0.000513079
-0.000859401
-0.001166
-0.00143787
-0.00167982
-0.00189613
-0.00209068
-0.00226702
-0.00242827
-0.00257711
-0.00271582
-0.00284623
-0.0029698
-0.00308758
-0.00320022
-0.00330806
-0.00341107
-0.00350891
-0.00360097
-0.00368636
-0.00376397
-0.00383246
-0.00389032
-0.00393591
-0.00396744
-0.00398307
-0.00398091
-0.00395908
-0.00391572
-0.00384907
-0.00375752
-0.0036396
-0.0034941
-0.0033201
-0.003117
-0.00288458
-0.00262301
-0.00233295
-0.00201555
-0.00167248
-0.00130597
-0.000918774
-0.000514207
-9.61279e-05
0.00033109
0.00076261
0.00119319
0.00161727
0.00202902
0.0024225
0.0027917
0.00313075
0.00343398
0.0036961
0.00391234
0.00407852
0.00419124
0.00424793
0.00424694
0.00418763
0.00407034
0.00389644
0.00366825
0.003389
0.00306278
0.00269437
0.00228913
0.00185288
0.00139174
0.000911965
0.000419603
-7.94278e-05
-0.000576794
-0.0010647
-0.00157337
-0.00213149
0.00114604
0.000459061
-8.33258e-05
-0.000526983
-0.000926155
-0.00128296
-0.00159908
-0.00187982
-0.00213031
-0.0023551
-0.00255831
-0.0027437
-0.00291454
-0.00307369
-0.0032235
-0.00336591
-0.00350243
-0.00363413
-0.00376168
-0.0038854
-0.00400521
-0.00412074
-0.00423129
-0.00433589
-0.0044333
-0.00452207
-0.00460055
-0.00466692
-0.00471921
-0.0047554
-0.00477337
-0.004771
-0.00474619
-0.00469692
-0.00462129
-0.00451757
-0.00438425
-0.00422012
-0.0040243
-0.00379627
-0.00353597
-0.00324378
-0.00292065
-0.00256808
-0.00218814
-0.00178352
-0.00135751
-0.000914013
-0.000457525
6.91567e-06
0.000473783
0.000937135
0.0013907
0.00182797
0.00224235
0.00262724
0.00297627
0.00328335
0.00354291
0.00374999
0.0039004
0.00399084
0.00401903
0.00398373
0.00388485
0.0037234
0.00350152
0.0032224
0.00289019
0.0025099
0.00208726
0.00162853
0.00114038
0.000629671
0.0001031
-0.000432768
-0.000968713
-0.00149611
-0.00204779
-0.00265487
0.000732175
2.55465e-05
-0.000532033
-0.000987883
-0.00139799
-0.00176473
-0.00208997
-0.00237938
-0.00263836
-0.00287173
-0.00308385
-0.00327868
-0.00345965
-0.00362976
-0.00379147
-0.00394679
-0.00409729
-0.00424406
-0.00438778
-0.00452875
-0.00466686
-0.00480166
-0.00493239
-0.00505798
-0.00517709
-0.00528813
-0.00538931
-0.00547862
-0.00555392
-0.00561297
-0.00565343
-0.00567292
-0.00566908
-0.00563961
-0.00558232
-0.00549516
-0.00537631
-0.00522423
-0.00503771
-0.00481593
-0.00455849
-0.00426552
-0.00393768
-0.00357625
-0.00318313
-0.00276087
-0.00231271
-0.00184255
-0.00135497
-0.000855211
-0.000349058
0.000157171
0.000656731
0.00114255
0.00160736
0.00204384
0.00244477
0.00280324
0.00311275
0.00336745
0.00356226
0.00369303
0.0037567
0.00375135
0.00367632
0.00353221
0.00332089
0.00304542
0.00271002
0.00231991
0.00188116
0.00140052
0.000885254
0.000342901
-0.000219154
-0.000793626
-0.00137032
-0.00193969
-0.00253742
-0.00319721
0.000252905
-0.000471704
-0.00104323
-0.00151033
-0.00193062
-0.0023067
-0.00264069
-0.00293854
-0.00320596
-0.00344802
-0.00366932
-0.00387398
-0.00406564
-0.00424738
-0.0044218
-0.00459098
-0.00475653
-0.00491956
-0.00508077
-0.00524043
-0.00539838
-0.00555414
-0.00570684
-0.00585535
-0.00599818
-0.00613363
-0.00625975
-0.00637437
-0.00647514
-0.00655959
-0.00662515
-0.00666918
-0.00668904
-0.00668213
-0.00664593
-0.00657806
-0.00647636
-0.00633891
-0.00616415
-0.00595089
-0.00569838
-0.0054064
-0.00507532
-0.00470612
-0.00430048
-0.00386076
-0.00339008
-0.00289232
-0.00237212
-0.00183484
-0.00128654
-0.000733892
-0.000184122
0.000355111
0.000875838
0.00136994
0.00182933
0.00224611
0.00261281
0.00292254
0.0031692
0.00334767
0.00345397
0.00348536
0.0034405
0.00331945
0.0031237
0.00285615
0.00252101
0.00212369
0.00167061
0.00116902
0.000626833
5.23011e-05
-0.000546421
-0.00116126
-0.00178093
-0.00239492
-0.00304195
-0.00375854
-0.000293783
-0.00103462
-0.00161879
-0.00209617
-0.00252587
-0.00291071
-0.00325304
-0.00355912
-0.00383493
-0.00408579
-0.00431652
-0.00453143
-0.00473432
-0.0049284
-0.00511636
-0.00530037
-0.00548206
-0.00566259
-0.00584265
-0.00602248
-0.00620191
-0.00638036
-0.00655694
-0.00673037
-0.00689909
-0.00706125
-0.00721473
-0.00735719
-0.00748607
-0.0075987
-0.00769223
-0.00776376
-0.00781036
-0.00782908
-0.00781709
-0.00777162
-0.00769013
-0.00757032
-0.00741021
-0.0072082
-0.00696315
-0.00667443
-0.00634204
-0.00596665
-0.00554961
-0.00509306
-0.00459994
-0.00407405
-0.00352001
-0.0029433
-0.0023502
-0.00174773
-0.00114358
-0.000546019
3.62672e-05
0.000594308
0.00111905
0.00160158
0.00203328
0.00240614
0.00271289
0.00294727
0.00310424
0.00318009
0.00317263
0.00308126
0.002907
0.00265246
0.00232178
0.00192052
0.00145544
0.000934319
0.000365727
-0.000241284
-0.000877727
-0.00153465
-0.0021996
-0.00286096
-0.00356078
-0.00433858
-0.000909664
-0.00166492
-0.00226037
-0.00274704
-0.00318535
-0.00357835
-0.00392862
-0.00424269
-0.00452684
-0.0047866
-0.00502703
-0.00525261
-0.00546729
-0.00567441
-0.00587676
-0.00607657
-0.00627553
-0.00647482
-0.00667511
-0.00687665
-0.00707922
-0.0072822
-0.00748461
-0.00768509
-0.00788196
-0.00807324
-0.00825664
-0.00842965
-0.0085895
-0.00873328
-0.00885789
-0.00896015
-0.00903679
-0.00908456
-0.00910022
-0.00908064
-0.00902284
-0.0089241
-0.00878198
-0.00859444
-0.00835986
-0.00807718
-0.00774596
-0.00736645
-0.00693967
-0.00646744
-0.00595245
-0.00539833
-0.00480967
-0.004192
-0.00355176
-0.00289628
-0.00223372
-0.00157294
-0.000923374
-0.000294888
0.00030245
0.000858578
0.00136368
0.00180844
0.00218428
0.00248366
0.00270027
0.00282927
0.00286746
0.00281341
0.00266751
0.00243197
0.00211079
0.00170961
0.0012355
0.000696782
0.000102721
-0.000536781
-0.00121182
-0.00191249
-0.00262504
-0.00333665
-0.00409294
-0.0049367
-0.00159627
-0.00236406
-0.00296941
-0.00346435
-0.00391045
-0.00431099
-0.00466877
-0.00499061
-0.00528303
-0.0055518
-0.00580218
-0.00603885
-0.00626587
-0.00648674
-0.00670433
-0.00692092
-0.00713827
-0.00735757
-0.00757951
-0.00780432
-0.00803174
-0.00826111
-0.00849138
-0.0087211
-0.00894847
-0.00917138
-0.00938739
-0.00959379
-0.00978763
-0.00996573
-0.0101248
-0.0102612
-0.0103715
-0.010452
-0.0104991
-0.0105093
-0.010479
-0.0104052
-0.0102849
-0.0101155
-0.00989492
-0.00962158
-0.00929455
-0.0089136
-0.0084793
-0.00799309
-0.00745735
-0.00687548
-0.00625192
-0.0055922
-0.00490287
-0.00419153
-0.00346676
-0.002738
-0.00201545
-0.00130991
-0.000632503
5.47431e-06
0.000592874
0.00111895
0.00157367
0.001948
0.00223419
0.00242606
0.00251922
0.00251119
0.00240158
0.00219207
0.00188637
0.00149012
0.0010107
0.00045692
-0.000161197
-0.000832852
-0.00154715
-0.00229311
-0.00305558
-0.00382039
-0.00463704
-0.00555182
-0.00235486
-0.00313325
-0.00374709
-0.00424924
-0.0047023
-0.00510976
-0.00547462
-0.00580397
-0.00610459
-0.00638247
-0.00664306
-0.0068912
-0.00713112
-0.00736642
-0.00760006
-0.00783441
-0.00807125
-0.00831181
-0.00855681
-0.00880644
-0.00906043
-0.00931809
-0.00957827
-0.00983946
-0.0100997
-0.0103569
-0.0106083
-0.010851
-0.011082
-0.0112978
-0.0114947
-0.0116691
-0.0118168
-0.0119341
-0.0120167
-0.0120608
-0.0120624
-0.0120177
-0.0119235
-0.0117764
-0.0115739
-0.0113137
-0.0109945
-0.0106153
-0.0101763
-0.0096785
-0.00912376
-0.0085152
-0.00785706
-0.00715475
-0.00641488
-0.00564526
-0.00485482
-0.00405358
-0.00325249
-0.00246327
-0.00169818
-0.000969825
-0.000290785
0.000326629
0.000870738
0.00133084
0.00169753
0.00196307
0.00212162
0.00216948
0.00210524
0.00192987
0.00164668
0.00126119
0.000780982
0.000215396
-0.000424801
-0.00112785
-0.00188176
-0.00267441
-0.00348907
-0.00431013
-0.00519122
-0.0061824
-0.00318641
-0.00397344
-0.00459431
-0.00510262
-0.00556178
-0.00597551
-0.00634702
-0.00668364
-0.00699237
-0.00727943
-0.00755045
-0.00781044
-0.00806377
-0.00831415
-0.00856463
-0.00881765
-0.00907506
-0.00933811
-0.00960753
-0.00988352
-0.0101658
-0.0104536
-0.0107458
-0.0110407
-0.0113363
-0.0116303
-0.0119199
-0.0122021
-0.0124734
-0.0127303