/*--------------------------------*- C++ -*----------------------------------*\
| =========                 |                                                 |
| \\      /  F ield         | OpenFOAM: The Open Source CFD Toolbox           |
|  \\    /   O peration     | Version:  2506                                  |
|   \\  /    A nd           | Website:  www.openfoam.com                      |
|    \\/     M anipulation  |                                                 |
\*---------------------------------------------------------------------------*/
FoamFile
{
    version     2.0;
    format      ascii;
    arch        "LSB;label=32;scalar=64";
    class       surfaceScalarField;
    location    "1.275";
    object      phi;
}
// * * * * * * * * * * * * * * * * * * * * * * * * * * * * * * * * * * * * * //

dimensions      [0 3 -1 0 0 0 0];

oriented        oriented;

internalField   nonuniform List<scalar> 
12640
(
2.13264e-10
-2.13315e-10
5.84802e-10
-3.71525e-10
8.79811e-10
-2.95016e-10
9.73096e-10
-9.32744e-11
8.09165e-10
1.63913e-10
3.70563e-10
4.38598e-10
-3.39402e-10
7.09963e-10
-1.30607e-09
9.66677e-10
-2.50891e-09
1.20282e-09
-3.92456e-09
1.41565e-09
-5.52885e-09
1.60428e-09
-7.29779e-09
1.76893e-09
-9.20828e-09
1.9105e-09
-1.12385e-08
2.0302e-09
-1.33679e-08
2.12943e-09
-1.55775e-08
2.20961e-09
-1.78496e-08
2.27215e-09
-2.0168e-08
2.31833e-09
-2.25172e-08
2.34928e-09
-2.48832e-08
2.36595e-09
-2.72523e-08
2.36918e-09
-2.96119e-08
2.35958e-09
-3.19495e-08
2.33761e-09
-3.42532e-08
2.3036e-09
-3.65109e-08
2.25773e-09
-3.87109e-08
2.20006e-09
-4.08415e-08
2.13057e-09
-4.28907e-08
2.04921e-09
-4.48466e-08
1.95589e-09
-4.66971e-08
1.8505e-09
-4.843e-08
1.73295e-09
-5.00333e-08
1.60323e-09
-5.14946e-08
1.46138e-09
-5.28022e-08
1.30757e-09
-5.39443e-08
1.14207e-09
-5.49096e-08
9.65287e-10
-5.56874e-08
7.77828e-10
-5.62678e-08
5.80433e-10
-5.66419e-08
3.74032e-10
-5.68016e-08
1.5977e-10
-5.67406e-08
-6.10285e-11
-5.64538e-08
-2.86842e-10
-5.59378e-08
-5.15949e-10
-5.51913e-08
-7.46479e-10
-5.42149e-08
-9.76394e-10
-5.30114e-08
-1.20349e-09
-5.1586e-08
-1.42546e-09
-4.99461e-08
-1.63993e-09
-4.81016e-08
-1.84444e-09
-4.60651e-08
-2.03655e-09
-4.38512e-08
-2.21385e-09
-4.14773e-08
-2.37395e-09
-3.89627e-08
-2.5146e-09
-3.63289e-08
-2.6337e-09
-3.35996e-08
-2.72938e-09
-3.07996e-08
-2.79997e-09
-2.79555e-08
-2.8441e-09
-2.50948e-08
-2.86072e-09
-2.22457e-08
-2.84908e-09
-1.94369e-08
-2.80883e-09
-1.66969e-08
-2.73998e-09
-1.40539e-08
-2.64299e-09
-1.15353e-08
-2.51867e-09
-9.167e-09
-2.36826e-09
-6.97363e-09
-2.19337e-09
-4.9776e-09
-1.99603e-09
-3.19894e-09
-1.77867e-09
-1.65483e-09
-1.54411e-09
-3.5919e-10
-1.29563e-09
6.77858e-10
-1.03703e-09
1.45057e-09
-7.72705e-10
1.95841e-09
-5.07854e-10
2.20727e-09
-2.48855e-10
2.2112e-09
-3.91654e-12
1.99505e-09
2.1616e-10
1.59907e-09
3.95969e-10
1.08528e-09
5.13783e-10
5.48106e-10
5.37184e-10
1.30327e-10
4.17798e-10
1.30322e-10
3.71606e-10
-5.84911e-10
8.42743e-10
-8.42651e-10
1.04409e-09
-4.96349e-10
7.5212e-10
1.98721e-10
-1.57862e-10
1.0739e-09
-1.74012e-09
2.02087e-09
-4.00193e-09
2.97176e-09
-6.9205e-09
3.88524e-09
-1.04548e-08
4.73708e-09
-1.45531e-08
5.51401e-09
-1.91585e-08
6.20973e-09
-2.42121e-08
6.82255e-09
-2.96552e-08
7.35359e-09
-3.54307e-08
7.80571e-09
-4.1484e-08
8.18274e-09
-4.77634e-08
8.48894e-09
-5.42199e-08
8.72867e-09
-6.08077e-08
8.90605e-09
-6.74833e-08
9.02488e-09
-7.42058e-08
9.08844e-09
-8.09361e-08
9.09951e-09
-8.76368e-08
9.06031e-09
-9.42718e-08
8.97255e-09
-1.00806e-07
8.83744e-09
-1.07204e-07
8.65575e-09
-1.13431e-07
8.42792e-09
-1.19455e-07
8.15408e-09
-1.2524e-07
7.83418e-09
-1.30752e-07
7.4681e-09
-1.35957e-07
7.05571e-09
-1.40821e-07
6.59699e-09
-1.4531e-07
6.09215e-09
-1.49391e-07
5.54165e-09
-1.53029e-07
4.94632e-09
-1.56195e-07
4.30748e-09
-1.58856e-07
3.62695e-09
-1.60986e-07
2.90715e-09
-1.62556e-07
2.15113e-09
-1.63545e-07
1.36259e-09
-1.63931e-07
5.45929e-10
-1.63698e-07
-2.93739e-10
-1.62835e-07
-1.15065e-09
-1.61332e-07
-2.01834e-09
-1.59189e-07
-2.88975e-09
-1.56408e-07
-3.75725e-09
-1.52999e-07
-4.61273e-09
-1.48977e-07
-5.44768e-09
-1.44363e-07
-6.25329e-09
-1.39187e-07
-7.02065e-09
-1.33483e-07
-7.74077e-09
-1.27292e-07
-8.40479e-09
-1.20662e-07
-9.00412e-09
-1.13646e-07
-9.5306e-09
-1.06303e-07
-9.97663e-09
-9.86968e-08
-1.03354e-08
-9.08958e-08
-1.06009e-08
-8.29716e-08
-1.07683e-08
-7.49985e-08
-1.08338e-08
-6.70529e-08
-1.07947e-08
-5.92117e-08
-1.065e-08
-5.15519e-08
-1.03998e-08
-4.41491e-08
-1.00458e-08
-3.70766e-08
-9.59115e-09
-3.04043e-08
-9.04058e-09
-2.41974e-08
-8.40027e-09
-1.85155e-08
-7.67792e-09
-1.34114e-08
-6.88282e-09
-8.92962e-09
-6.02587e-09
-5.10555e-09
-5.11971e-09
-1.96365e-09
-4.17895e-09
4.84199e-10
-3.22056e-09
2.24092e-09
-2.26456e-09
3.32707e-09
-1.335e-09
3.78474e-09
-4.61576e-10
3.68288e-09
3.18012e-10
3.12409e-09
9.5475e-10
2.25348e-09
1.38441e-09
1.26735e-09
1.52333e-09
4.15935e-10
1.26921e-09
5.46254e-10
2.99803e-10
-8.84722e-10
5.03107e-10
-1.04595e-09
2.01404e-10
-1.94652e-10
-8.60675e-10
1.2608e-09
-2.83522e-09
3.04844e-09
-5.7949e-09
4.98054e-09
-9.75423e-09
6.93111e-09
-1.46875e-08
8.81848e-09
-2.05419e-08
1.05915e-08
-2.72478e-08
1.22199e-08
-3.47255e-08
1.36874e-08
-4.28903e-08
1.49874e-08
-5.16562e-08
1.61195e-08
-6.09382e-08
1.70877e-08
-7.06534e-08
1.78979e-08
-8.07223e-08
1.85579e-08
-9.10691e-08
1.90754e-08
-1.01621e-07
1.94584e-08
-1.12311e-07
1.9714e-08
-1.23071e-07
1.98489e-08
-1.3384e-07
1.98685e-08
-1.44557e-07
1.97773e-08
-1.55163e-07
1.95788e-08
-1.65602e-07
1.92758e-08
-1.75816e-07
1.88699e-08
-1.8575e-07
1.83622e-08
-1.95349e-07
1.77532e-08
-2.04558e-07
1.70433e-08
-2.13322e-07
1.62324e-08
-2.21588e-07
1.53207e-08
-2.29299e-07
1.43086e-08
-2.36404e-07
1.31968e-08
-2.42849e-07
1.19868e-08
-2.48583e-07
1.06808e-08
-2.53558e-07
9.28203e-09
-2.57726e-07
7.79483e-09
-2.61043e-07
6.22469e-09
-2.63471e-07
4.57847e-09
-2.64972e-07
2.8644e-09
-2.65519e-07
1.09215e-09
-2.65085e-07
-7.27191e-10
-2.63655e-07
-2.58109e-09
-2.61217e-07
-4.45569e-09
-2.57771e-07
-6.33587e-09
-2.53323e-07
-8.20534e-09
-2.47889e-07
-1.00469e-08
-2.41494e-07
-1.18424e-08
-2.34174e-07
-1.35734e-08
-2.25974e-07
-1.52211e-08
-2.16948e-07
-1.67664e-08
-2.07162e-07
-1.81909e-08
-1.9669e-07
-1.94765e-08
-1.85614e-07
-2.06062e-08
-1.74026e-07
-2.15641e-08
-1.62026e-07
-2.23359e-08
-1.49718e-07
-2.29094e-08
-1.37212e-07
-2.32741e-08
-1.24623e-07
-2.34224e-08
-1.12069e-07
-2.33489e-08
-9.96677e-08
-2.30514e-08
-8.75371e-08
-2.25303e-08
-7.57933e-08
-2.17896e-08
-6.45485e-08
-2.0836e-08
-5.39095e-08
-1.96796e-08
-4.39759e-08
-1.83338e-08
-3.48384e-08
-1.68154e-08
-2.65769e-08
-1.51443e-08
-1.92586e-08
-1.33442e-08
-1.29359e-08
-1.14424e-08
-7.64436e-09
-9.47048e-09
-3.39989e-09
-7.46502e-09
-1.95829e-10
-5.46864e-09
2.00088e-09
-3.53172e-09
3.25416e-09
-1.71484e-09
3.66445e-09
-9.22694e-11
3.37521e-09
1.24399e-09
2.58031e-09
2.17931e-09
1.53025e-09
2.5734e-09
5.36571e-10
2.26289e-09
1.08283e-09
1.00522e-10
-9.85225e-10
-1.93571e-10
-7.5185e-10
-1.26682e-09
8.78609e-10
-3.3672e-09
3.36119e-09
-6.64496e-09
6.3262e-09
-1.1173e-08
9.50853e-09
-1.69643e-08
1.27224e-08
-2.39879e-08
1.58422e-08
-3.21817e-08
1.87853e-08
-4.14622e-08
2.15004e-08
-5.17327e-08
2.3958e-08
-6.28892e-08
2.61438e-08
-7.48241e-08
2.80545e-08
-8.74298e-08
2.96934e-08
-1.006e-07
3.10686e-08
-1.14233e-07
3.21905e-08
-1.28229e-07
3.30709e-08
-1.42492e-07
3.37214e-08
-1.56931e-07
3.41533e-08
-1.71458e-07
3.43766e-08
-1.8599e-07
3.44002e-08
-2.00444e-07
3.42312e-08
-2.14741e-07
3.38755e-08
-2.28802e-07
3.33375e-08
-2.42553e-07
3.26201e-08
-2.55916e-07
3.17255e-08
-2.68818e-07
3.0655e-08
-2.81184e-07
2.94093e-08
-2.92941e-07
2.7989e-08
-3.04015e-07
2.63949e-08
-3.14334e-07
2.46281e-08
-3.23828e-07
2.26906e-08
-3.32427e-07
2.05854e-08
-3.40063e-07
1.8317e-08
-3.46672e-07
1.58914e-08
-3.52194e-07
1.33164e-08
-3.56571e-07
1.06021e-08
-3.59753e-07
7.7604e-09
-3.61695e-07
4.80586e-09
-3.62358e-07
1.75521e-09
-3.61712e-07
-1.37243e-09
-3.59738e-07
-4.5556e-09
-3.56423e-07
-7.77063e-09
-3.51767e-07
-1.09918e-08
-3.45781e-07
-1.41916e-08
-3.38487e-07
-1.73409e-08
-3.2992e-07
-2.04092e-08
-3.20128e-07
-2.33655e-08
-3.09171e-07
-2.6178e-08
-2.97122e-07
-2.88152e-08
-2.84067e-07
-3.12459e-08
-2.70103e-07
-3.34402e-08
-2.5534e-07
-3.53695e-08
-2.39897e-07
-3.70074e-08
-2.23903e-07
-3.83302e-08
-2.07494e-07
-3.93174e-08
-1.90817e-07
-3.9952e-08
-1.74018e-07
-4.02209e-08
-1.57251e-07
-4.01157e-08
-1.4067e-07
-3.96325e-08
-1.24428e-07
-3.87727e-08
-1.08675e-07
-3.75425e-08
-9.3557e-08
-3.59539e-08
-7.92125e-08
-3.40241e-08
-6.57705e-08
-3.17759e-08
-5.33482e-08
-2.92377e-08
-4.20486e-08
-2.64439e-08
-3.19582e-08
-2.34346e-08
-2.31442e-08
-2.02565e-08
-1.56515e-08
-1.69631e-08
-9.50026e-09
-1.36163e-08
-4.68181e-09
-1.02871e-08
-1.15502e-09
-7.0585e-09
1.15824e-09
-4.02808e-09
2.37809e-09
-1.31212e-09
2.6723e-09
9.4976e-10
2.26226e-09
2.58937e-09
1.4291e-09
3.40655e-09
5.22896e-10
3.16909e-09
1.60573e-09
-1.60034e-10
-8.25186e-10
-1.09337e-09
1.81505e-10
-3.11788e-09
2.90312e-09
-6.44488e-09
6.68822e-09
-1.1202e-08
1.10833e-08
-1.74475e-08
1.5754e-08
-2.51836e-08
2.04585e-08
-3.43695e-08
2.5028e-08
-4.49321e-08
2.93479e-08
-5.67757e-08
3.3344e-08
-6.97894e-08
3.69716e-08
-8.3853e-08
4.02075e-08
-9.88417e-08
4.30432e-08
-1.14629e-07
4.54811e-08
-1.31091e-07
4.75301e-08
-1.48104e-07
4.92032e-08
-1.65548e-07
5.05156e-08
-1.8331e-07
5.14829e-08
-2.01277e-07
5.21202e-08
-2.19342e-07
5.24414e-08
-2.374e-07
5.24587e-08
-2.55351e-07
5.21824e-08
-2.73097e-07
5.16209e-08
-2.9054e-07
5.07803e-08
-3.07585e-07
4.96656e-08
-3.24139e-07
4.82799e-08
-3.4011e-07
4.66255e-08
-3.55405e-07
4.47041e-08
-3.69933e-07
4.25172e-08
-3.83604e-07
4.00666e-08
-3.96331e-07
3.73547e-08
-4.08026e-07
3.43853e-08
-4.18604e-07
3.11637e-08
-4.27984e-07
2.76974e-08
-4.36089e-07
2.3996e-08
-4.42845e-07
2.00722e-08
-4.48184e-07
1.59416e-08
-4.52047e-07
1.16228e-08
-4.54379e-07
7.1379e-09
-4.55136e-07
2.51258e-09
-4.54284e-07
-2.2242e-09
-4.518e-07
-7.04012e-09
-4.47671e-07
-1.18996e-08
-4.41899e-07
-1.67642e-08
-4.34497e-07
-2.15927e-08
-4.25497e-07
-2.63418e-08
-4.14939e-07
-3.09664e-08
-4.02885e-07
-3.54201e-08
-3.89407e-07
-3.96562e-08
-3.74594e-07
-4.36279e-08
-3.58551e-07
-4.72893e-08
-3.41395e-07
-5.05959e-08
-3.23258e-07
-5.3506e-08
-3.04285e-07
-5.59806e-08
-2.84631e-07
-5.79847e-08
-2.6446e-07
-5.94882e-08
-2.43946e-07
-6.04661e-08
-2.23267e-07
-6.08993e-08
-2.02608e-07
-6.07754e-08
-1.82151e-07
-6.00889e-08
-1.62082e-07
-5.88419e-08
-1.4258e-07
-5.70441e-08
-1.23821e-07
-5.47131e-08
-1.0597e-07
-5.18749e-08
-8.91827e-08
-4.85636e-08
-7.35986e-08
-4.48218e-08
-5.93417e-08
-4.07008e-08
-4.65156e-08
-3.62607e-08
-3.5201e-08
-3.15711e-08
-2.54524e-08
-2.67118e-08
-1.7295e-08
-2.17737e-08
-1.0721e-08
-1.68611e-08
-5.68574e-09
-1.20937e-08
-2.10397e-09
-7.60986e-09
1.54876e-10
-3.57098e-09
1.27102e-09
-1.66372e-10
1.47939e-09
2.38101e-09
1.07571e-09
3.81024e-09
4.26519e-10
3.8183e-09
2.03225e-09
-4.48078e-10
-3.77116e-10
-2.10092e-09
1.83437e-09
-5.1894e-09
5.99158e-09
-9.8692e-09
1.1368e-08
-1.623e-08
1.74442e-08
-2.43036e-08
2.38276e-08
-3.40729e-08
3.02278e-08
-4.54816e-08
3.64367e-08
-5.84431e-08
4.23094e-08
-7.28485e-08
4.77494e-08
-8.85734e-08
5.26966e-08
-1.05483e-07
5.71175e-08
-1.23439e-07
6.09987e-08
-1.42298e-07
6.43402e-08
-1.61919e-07
6.71511e-08
-1.82163e-07
6.94468e-08
-2.02892e-07
7.12453e-08
-2.23975e-07
7.2566e-08
-2.45283e-07
7.34279e-08
-2.6669e-07
7.38486e-08
-2.88075e-07
7.38438e-08
-3.0932e-07
7.34268e-08
-3.30308e-07
7.26087e-08
-3.50925e-07
7.13979e-08
-3.71061e-07
6.98009e-08
-3.90603e-07
6.78226e-08
-4.09444e-07
6.54665e-08
-4.27476e-07
6.27355e-08
-4.44591e-07
5.96323e-08
-4.60684e-07
5.61601e-08
-4.75653e-07
5.23233e-08
-4.89396e-07
4.8128e-08
-5.01814e-07
4.35825e-08
-5.12815e-07
3.86979e-08
-5.22308e-07
3.34888e-08
-5.30209e-07
2.79734e-08
-5.36441e-07
2.2174e-08
-5.40936e-07
1.61173e-08
-5.43632e-07
9.8344e-09
-5.44481e-07
3.36129e-09
-5.43444e-07
-3.26162e-09
-5.40495e-07
-9.98931e-09
-5.35622e-07
-1.67725e-08
-5.28828e-07
-2.35581e-08
-5.20131e-07
-3.02893e-08
-5.09567e-07
-3.69064e-08
-4.97185e-07
-4.33477e-08
-4.83056e-07
-4.95495e-08
-4.67264e-07
-5.54478e-08
-4.49914e-07
-6.09787e-08
-4.31124e-07
-6.60793e-08
-4.1103e-07
-7.06891e-08
-3.89785e-07
-7.4751e-08
-3.67554e-07
-7.82119e-08
-3.44515e-07
-8.10241e-08
-3.20857e-07
-8.31463e-08
-2.96778e-07
-8.45446e-08
-2.72485e-07
-8.51929e-08
-2.48185e-07
-8.50745e-08
-2.24093e-07
-8.41818e-08
-2.00417e-07
-8.25178e-08
-1.77365e-07
-8.00958e-08
-1.55138e-07
-7.69401e-08
-1.33926e-07
-7.30866e-08
-1.13908e-07
-6.85821e-08
-9.5244e-08
-6.34854e-08
-7.80777e-08
-5.78671e-08
-6.25285e-08
-5.18099e-08
-4.86905e-08
-4.54091e-08
-3.66284e-08
-3.87739e-08
-2.63744e-08
-3.20277e-08
-1.79244e-08
-2.53111e-08
-1.12349e-08
-1.87832e-08
-6.21911e-09
-1.26257e-08
-2.74352e-09
-7.04657e-09
-6.24309e-10
-2.28556e-09
3.767e-10
1.38001e-09
5.56995e-10
3.62996e-09
2.81065e-10
4.09423e-09
2.31331e-09
-7.45741e-10
3.68632e-10
-3.15834e-09
4.24698e-09
-7.3754e-09
1.02086e-08
-1.34865e-08
1.74792e-08
-2.15332e-08
2.54908e-08
-3.15116e-08
3.3806e-08
-4.33781e-08
4.20944e-08
-5.70558e-08
5.01143e-08
-7.24408e-08
5.76945e-08
-8.94095e-08
6.47181e-08
-1.07823e-07
7.11103e-08
-1.27534e-07
7.68286e-08
-1.48389e-07
8.18535e-08
-1.70232e-07
8.61828e-08
-1.92906e-07
8.98258e-08
-2.16259e-07
9.27994e-08
-2.40138e-07
9.51244e-08
-2.64396e-07
9.68238e-08
-2.88888e-07
9.792e-08
-3.13474e-07
9.84345e-08
-3.38016e-07
9.83863e-08
-3.62381e-07
9.77918e-08
-3.86437e-07
9.66647e-08
-4.10055e-07
9.50158e-08
-4.33108e-07
9.28534e-08
-4.55469e-07
9.01842e-08
-4.77016e-07
8.70131e-08
-4.97625e-07
8.33444e-08
-5.17175e-07
7.91827e-08
-5.35548e-07
7.45328e-08
-5.52626e-07
6.94017e-08
-5.68296e-07
6.37981e-08
-5.82448e-07
5.77342e-08
-5.94976e-07
5.12256e-08
-6.05779e-07
4.42923e-08
-6.14765e-07
3.69592e-08
-6.21847e-07
2.92565e-08
-6.2695e-07
2.12198e-08
-6.30006e-07
1.28907e-08
-6.30962e-07
4.31671e-09
-6.29775e-07
-4.44875e-09
-6.26417e-07
-1.33466e-08
-6.20878e-07
-2.23121e-08
-6.1316e-07
-3.12759e-08
-6.03285e-07
-4.0164e-08
-5.91293e-07
-4.88986e-08
-5.77241e-07
-5.73992e-08
-5.61208e-07
-6.55833e-08
-5.43288e-07
-7.33678e-08
-5.23597e-07
-8.06697e-08
-5.02268e-07
-8.74076e-08
-4.79454e-07
-9.35032e-08
-4.55323e-07
-9.88822e-08
-4.30059e-07
-1.03476e-07
-4.0386e-07
-1.07223e-07
-3.76937e-07
-1.10069e-07
-3.49511e-07
-1.11971e-07
-3.2181e-07
-1.12894e-07
-2.94068e-07
-1.12817e-07
-2.6652e-07
-1.1173e-07
-2.39402e-07
-1.09636e-07
-2.12945e-07
-1.06553e-07
-1.87373e-07
-1.02512e-07
-1.629e-07
-9.75601e-08
-1.39724e-07
-9.17579e-08
-1.18028e-07
-8.51818e-08
-9.79713e-08
-7.79234e-08
-7.96911e-08
-7.00901e-08
-6.32948e-08
-6.18054e-08
-4.88587e-08
-5.321e-08
-3.6424e-08
-4.44625e-08
-2.59936e-08
-3.57415e-08
-1.75289e-08
-2.72479e-08
-1.09467e-08
-1.92078e-08
-6.11655e-09
-1.18767e-08
-2.85781e-09
-5.5443e-09
-9.37058e-10
-5.40737e-10
-6.49767e-11
2.75789e-09
1.0787e-10
3.92138e-09
2.42118e-09
-1.04363e-09
1.41226e-09
-4.23135e-09
7.43471e-09
-9.60864e-09
1.55859e-08
-1.71945e-08
2.5065e-08
-2.6976e-08
3.52723e-08
-3.89075e-08
4.57375e-08
-5.2913e-08
5.60999e-08
-6.88902e-08
6.60915e-08
-8.67148e-08
7.55192e-08
-1.06246e-07
8.42491e-08
-1.2733e-07
9.21943e-08
-1.49805e-07
9.93036e-08
-1.73504e-07
1.05553e-07
-1.98259e-07
1.10938e-07
-2.23901e-07
1.15467e-07
-2.50262e-07
1.1916e-07
-2.77178e-07
1.22041e-07
-3.04488e-07
1.24134e-07
-3.32033e-07
1.25466e-07
-3.59661e-07
1.26062e-07
-3.87219e-07
1.25944e-07
-4.1456e-07
1.25133e-07
-4.41538e-07
1.23643e-07
-4.68011e-07
1.21488e-07
-4.93836e-07
1.18679e-07
-5.18876e-07
1.15224e-07
-5.42993e-07
1.1113e-07
-5.6605e-07
1.06402e-07
-5.87915e-07
1.01047e-07
-6.08454e-07
9.50723e-08
-6.2754e-07
8.84874e-08
-6.45047e-07
8.13048e-08
-6.60853e-07
7.35406e-08
-6.74843e-07
6.52156e-08
-6.86907e-07
5.63564e-08
-6.96943e-07
4.6995e-08
-7.04857e-07
3.71705e-08
-7.10565e-07
2.69285e-08
-7.13997e-07
1.63222e-08
-7.15092e-07
5.41174e-09
-7.13805e-07
-5.73523e-09
-7.10108e-07
-1.70441e-08
-7.03986e-07
-2.84337e-08
-6.95446e-07
-3.98167e-08
-6.84509e-07
-5.11001e-08
-6.71221e-07
-6.21869e-08
-6.55644e-07
-7.29763e-08
-6.37862e-07
-8.33653e-08
-6.1798e-07
-9.32498e-08
-5.96123e-07
-1.02526e-07
-5.72437e-07
-1.11094e-07
-5.47087e-07
-1.18853e-07
-5.20256e-07
-1.25713e-07
-4.92145e-07
-1.31587e-07
-4.6297e-07
-1.36398e-07
-4.3296e-07
-1.40079e-07
-4.02356e-07
-1.42575e-07
-3.71407e-07
-1.43843e-07
-3.40369e-07
-1.43855e-07
-3.09499e-07
-1.42599e-07
-2.79056e-07
-1.40079e-07
-2.49292e-07
-1.36316e-07
-2.20455e-07
-1.3135e-07
-1.92779e-07
-1.25236e-07
-1.66483e-07
-1.18053e-07
-1.41771e-07
-1.09895e-07
-1.18819e-07
-1.00875e-07
-9.77816e-08
-9.11275e-08
-7.87809e-08
-8.08061e-08
-6.19065e-08
-7.00844e-08
-4.7211e-08
-5.9158e-08
-3.4707e-08
-4.82454e-08
-2.43648e-08
-3.75902e-08
-1.61089e-08
-2.74638e-08
-9.81656e-09
-1.8169e-08
-5.31592e-09
-1.00449e-08
-2.38439e-09
-3.47226e-09
-7.47765e-10
1.12128e-09
-7.95679e-11
3.25318e-09
2.34161e-09
-1.33698e-09
2.74925e-09
-5.30008e-09
1.13978e-08
-1.18471e-08
2.2133e-08
-2.09259e-08
3.41437e-08
-3.24657e-08
4.68121e-08
-4.63751e-08
5.96469e-08
-6.25417e-08
7.22665e-08
-8.08341e-08
8.43839e-08
-1.01104e-07
9.57896e-08
-1.23192e-07
1.06337e-07
-1.46928e-07
1.1593e-07
-1.72134e-07
1.2451e-07
-1.98631e-07
1.3205e-07
-2.26238e-07
1.38544e-07
-2.54773e-07
1.44003e-07
-2.84059e-07
1.48446e-07
-3.13918e-07
1.51899e-07
-3.44177e-07
1.54393e-07
-3.74667e-07
1.55956e-07
-4.05221e-07
1.56616e-07
-4.35676e-07
1.564e-07
-4.65872e-07
1.55329e-07
-4.95651e-07
1.53422e-07
-5.24858e-07
1.50695e-07
-5.5334e-07
1.47161e-07
-5.80944e-07
1.42829e-07
-6.07522e-07
1.37708e-07
-6.32926e-07
1.31806e-07
-6.5701e-07
1.25131e-07
-6.79631e-07
1.17693e-07
-7.00649e-07
1.09506e-07
-7.19929e-07
1.00584e-07
-7.37338e-07
9.09498e-08
-7.52751e-07
8.06293e-08
-7.66051e-07
6.96558e-08
-7.77126e-07
5.80699e-08
-7.85875e-07
4.59199e-08
-7.92209e-07
3.32625e-08
-7.9605e-07
2.01631e-08
-7.97334e-07
6.69582e-09
-7.96013e-07
-7.05667e-09
-7.92054e-07
-2.10032e-08
-7.85443e-07
-3.50446e-08
-7.76185e-07
-4.90744e-08
-7.64306e-07
-6.298e-08
-7.49849e-07
-7.6643e-08
-7.32885e-07
-8.99412e-08
-7.135e-07
-1.0275e-07
-6.91808e-07
-1.14942e-07
-6.67942e-07
-1.26393e-07
-6.42057e-07
-1.36978e-07
-6.1433e-07
-1.46581e-07
-5.84956e-07
-1.55087e-07
-5.54151e-07
-1.62392e-07
-5.22147e-07
-1.68403e-07
-4.89189e-07
-1.73037e-07
-4.55537e-07
-1.76227e-07
-4.21459e-07
-1.77921e-07
-3.8723e-07
-1.78083e-07
-3.5313e-07
-1.76699e-07
-3.19437e-07
-1.73772e-07
-2.86426e-07
-1.69327e-07
-2.54365e-07
-1.63411e-07
-2.2351e-07
-1.56091e-07
-1.94102e-07
-1.47461e-07
-1.66362e-07
-1.37635e-07
-1.40488e-07
-1.26749e-07
-1.1665e-07
-1.14965e-07
-9.49879e-08
-1.02468e-07
-7.56058e-08
-8.94665e-08
-5.85705e-08
-7.61934e-08
-4.39072e-08
-6.29086e-08
-3.1598e-08
-4.98994e-08
-2.1579e-08
-3.74827e-08
-1.37392e-08
-2.60088e-08
-7.91951e-09
-1.58646e-08
-3.91257e-09
-7.47918e-09
-1.46371e-09
-1.32757e-09
-2.7309e-10
2.06256e-09
2.06853e-09
-1.62347e-09
4.37271e-09
-6.3532e-09
1.61275e-08
-1.4065e-08
2.98448e-08
-2.46367e-08
4.47154e-08
-3.79391e-08
6.01146e-08
-5.38328e-08
7.55406e-08
-7.21661e-08
9.05998e-08
-9.27756e-08
1.04993e-07
-1.15488e-07
1.18502e-07
-1.4012e-07
1.30969e-07
-1.66485e-07
1.42295e-07
-1.94391e-07
1.52415e-07
-2.23643e-07
1.61303e-07
-2.54049e-07
1.6895e-07
-2.85416e-07
1.7537e-07
-3.17554e-07
1.80584e-07
-3.50276e-07
1.84621e-07
-3.83398e-07
1.87515e-07
-4.1674e-07
1.89297e-07
-4.50124e-07
1.9e-07
-4.83378e-07
1.89653e-07
-5.16329e-07
1.8828e-07
-5.48809e-07
1.85903e-07
-5.80653e-07
1.82539e-07
-6.11695e-07
1.78203e-07
-6.41774e-07
1.72908e-07
-6.70728e-07
1.66662e-07
-6.98401e-07
1.59478e-07
-7.24635e-07
1.51364e-07
-7.49276e-07
1.42335e-07
-7.72177e-07
1.32406e-07
-7.93189e-07
1.21597e-07
-8.12174e-07
1.09934e-07
-8.28996e-07
9.74515e-08
-8.43529e-07
8.41887e-08
-8.55654e-07
7.01953e-08
-8.65264e-07
5.55297e-08
-8.72262e-07
4.02604e-08
-8.76564e-07
2.44656e-08
-8.78103e-07
8.23422e-09
-8.76824e-07
-8.33508e-09
-8.72694e-07
-2.51336e-08
-8.65695e-07
-4.20433e-08
-8.55832e-07
-5.89378e-08
-8.43129e-07
-7.56831e-08
-8.27633e-07
-9.21388e-08
-8.09414e-07
-1.0816e-07
-7.88566e-07
-1.23598e-07
-7.65205e-07
-1.38303e-07
-7.39471e-07
-1.52127e-07
-7.11527e-07
-1.64922e-07
-6.8156e-07
-1.76548e-07
-6.49777e-07
-1.8687e-07
-6.16405e-07
-1.95764e-07
-5.8169e-07
-2.03118e-07
-5.45893e-07
-2.08834e-07
-5.09289e-07
-2.1283e-07
-4.72166e-07
-2.15044e-07
-4.34818e-07
-2.15432e-07
-3.97543e-07
-2.13974e-07
-3.60641e-07
-2.10674e-07
-3.24407e-07
-2.0556e-07
-2.89132e-07
-1.98686e-07
-2.55093e-07
-1.90131e-07
-2.22551e-07
-1.80003e-07
-1.91748e-07
-1.68437e-07
-1.62904e-07
-1.55594e-07
-1.36207e-07
-1.41662e-07
-1.11815e-07
-1.2686e-07
-8.98496e-08
-1.11432e-07
-7.0394e-08
-9.56489e-08
-5.34891e-08
-7.98135e-08
-3.91316e-08
-6.42569e-08
-2.72722e-08
-4.93421e-08
-1.78149e-08
-3.54661e-08
-1.06165e-08
-2.3063e-08
-5.4878e-09
-1.26079e-08
-2.1958e-09
-4.61957e-09
-4.68059e-10
3.34819e-10
1.60047e-09
-1.9021e-09
6.27483e-09
-7.38443e-09
2.16099e-08
-1.62465e-08
3.87068e-08
-2.82986e-08
5.67675e-08
-4.33538e-08
7.51698e-08
-6.12234e-08
9.34102e-08
-8.17151e-08
1.11091e-07
-1.04632e-07
1.2791e-07
-1.29771e-07
1.43641e-07
-1.56929e-07
1.58128e-07
-1.85899e-07
1.71264e-07
-2.16471e-07
1.82987e-07
-2.48438e-07
1.9327e-07
-2.81594e-07
2.02107e-07
-3.15737e-07
2.09512e-07
-3.50664e-07
2.15511e-07
-3.8618e-07
2.20137e-07
-4.2209e-07
2.23425e-07
-4.58206e-07
2.25413e-07
-4.9434e-07
2.26134e-07
-5.30309e-07
2.25622e-07
-5.65933e-07
2.23904e-07
-6.01033e-07
2.21003e-07
-6.35435e-07
2.1694e-07
-6.68963e-07
2.11731e-07
-7.01446e-07
2.05391e-07
-7.32714e-07
1.9793e-07
-7.62598e-07
1.89363e-07
-7.90934e-07
1.797e-07
-8.17559e-07
1.68959e-07
-8.42313e-07
1.5716e-07
-8.65041e-07
1.44325e-07
-8.85595e-07
1.30489e-07
-9.03832e-07
1.15688e-07
-9.19617e-07
9.99736e-08
-9.32824e-07
8.34024e-08
-9.43339e-07
6.60439e-08
-9.51057e-07
4.79785e-08
-9.55889e-07
2.92984e-08
-9.57762e-07
1.01073e-08
-9.56618e-07
-9.47912e-09
-9.52418e-07
-2.9334e-08
-9.45142e-07
-4.93196e-08
-9.34791e-07
-6.92887e-08
-9.21389e-07
-8.90849e-08
-9.04983e-07
-1.08545e-07
-8.85643e-07
-1.275e-07
-8.63465e-07
-1.45776e-07
-8.38568e-07
-1.632e-07
-8.11098e-07
-1.79597e-07
-7.81224e-07
-1.94796e-07
-7.49139e-07
-2.08632e-07
-7.15061e-07
-2.20948e-07
-6.79226e-07
-2.31598e-07
-6.41894e-07
-2.4045e-07
-6.0334e-07
-2.47388e-07
-5.63855e-07
-2.52315e-07
-5.23743e-07
-2.55156e-07
-4.83316e-07
-2.55859e-07
-4.42892e-07
-2.54398e-07
-4.02791e-07
-2.50775e-07
-3.63331e-07
-2.4502e-07
-3.24823e-07
-2.37194e-07
-2.87566e-07
-2.27388e-07
-2.51846e-07
-2.15724e-07
-2.17925e-07
-2.02358e-07
-1.86044e-07
-1.87475e-07
-1.56413e-07
-1.71293e-07
-1.29211e-07
-1.54062e-07
-1.0458e-07
-1.36063e-07
-8.26199e-08
-1.17609e-07
-6.3391e-08
-9.90424e-08
-4.69074e-08
-8.07405e-08
-3.31372e-08
-6.31123e-08
-2.20017e-08
-4.66017e-08
-1.33759e-08
-3.16888e-08
-7.09041e-09
-1.88934e-08
-2.93457e-09
-8.77541e-09
-6.62131e-10
-1.93761e-09
9.38335e-10
-2.17255e-09
8.44737e-09
-8.39045e-09
2.78278e-08
-1.83821e-08
4.86985e-08
-3.18934e-08
7.02788e-08
-4.86808e-08
9.19572e-08
-6.85068e-08
1.13236e-07
-9.11373e-08
1.33722e-07
-1.1634e-07
1.53113e-07
-1.43885e-07
1.71186e-07
-1.73543e-07
1.87785e-07
-2.05086e-07
2.02806e-07
-2.38288e-07
2.1619e-07
-2.7293e-07
2.27911e-07
-3.0879e-07
2.37968e-07
-3.45656e-07
2.46378e-07
-3.83316e-07
2.53172e-07
-4.21564e-07
2.58385e-07
-4.60199e-07
2.6206e-07
-4.99021e-07
2.64235e-07
-5.37836e-07
2.64949e-07
-5.76452e-07
2.64238e-07
-6.14681e-07
2.62132e-07
-6.52336e-07
2.58658e-07
-6.89233e-07
2.53837e-07
-7.2519e-07
2.47688e-07
-7.60025e-07
2.40226e-07
-7.93561e-07
2.31466e-07
-8.2562e-07
2.21422e-07
-8.5603e-07
2.1011e-07
-8.84618e-07
1.97547e-07
-9.11217e-07
1.83758e-07
-9.35664e-07
1.68772e-07
-9.57801e-07
1.52626e-07
-9.77479e-07
1.35366e-07
-9.94554e-07
1.17048e-07
-1.00889e-06
9.77412e-08
-1.02037e-06
7.75242e-08
-1.02888e-06
5.64904e-08
-1.03433e-06
3.47457e-08
-1.03663e-06
1.24098e-08
-1.03573e-06
-1.03845e-08
-1.03157e-06
-3.34917e-08
-1.02414e-06
-5.67537e-08
-1.01342e-06
-8.00013e-08
-9.99454e-07
-1.03056e-07
-9.8227e-07
-1.25729e-07
-9.61942e-07
-1.47827e-07
-9.38566e-07
-1.69152e-07
-9.12264e-07
-1.89502e-07
-8.83182e-07
-2.08678e-07
-8.51496e-07
-2.26482e-07
-8.17404e-07
-2.42724e-07
-7.8113e-07
-2.57222e-07
-7.42922e-07
-2.69806e-07
-7.0305e-07
-2.80323e-07
-6.61802e-07
-2.88637e-07
-6.19483e-07
-2.94634e-07
-5.76413e-07
-2.98225e-07
-5.32924e-07
-2.99348e-07
-4.89352e-07
-2.9797e-07
-4.46039e-07
-2.94089e-07
-4.03323e-07
-2.87736e-07
-3.61539e-07
-2.78978e-07
-3.2101e-07
-2.67917e-07
-2.82043e-07
-2.54691e-07
-2.44927e-07
-2.39473e-07
-2.09926e-07
-2.22476e-07
-1.77273e-07
-2.03946e-07
-1.47169e-07
-1.84166e-07
-1.19779e-07
-1.63454e-07
-9.52244e-08
-1.42163e-07
-7.35863e-08
-1.2068e-07
-5.48987e-08
-9.9428e-08
-3.91493e-08
-7.88617e-08
-2.62791e-08
-5.94719e-08
-1.61827e-08
-4.17852e-08
-8.7112e-09
-2.63649e-08
-3.67592e-09
-1.38107e-08
-8.54481e-10
-4.75905e-09
8.38476e-11
-2.43476e-09
1.08821e-08
-9.36952e-09
3.47626e-08
-2.04661e-08
5.97951e-08
-3.54094e-08
8.5222e-08
-5.39007e-08
1.10448e-07
-7.56544e-08
1.3499e-07
-1.00395e-07
1.58463e-07
-1.27855e-07
1.80573e-07
-1.57774e-07
2.01105e-07
-1.89899e-07
2.19909e-07
-2.23979e-07
2.36887e-07
-2.59774e-07
2.51985e-07
-2.97047e-07
2.65183e-07
-3.35565e-07
2.76486e-07
-3.75104e-07
2.85917e-07
-4.15444e-07
2.93512e-07
-4.5637e-07
2.99311e-07
-4.97671e-07
3.03361e-07
-5.39141e-07
3.05705e-07
-5.80579e-07
3.06387e-07
-6.21784e-07
3.05444e-07
-6.62563e-07
3.02911e-07
-7.02719e-07
2.98815e-07
-7.42063e-07
2.93181e-07
-7.80405e-07
2.86029e-07
-8.17556e-07
2.77377e-07
-8.5333e-07
2.67241e-07
-8.87544e-07
2.55636e-07
-9.20015e-07
2.42581e-07
-9.50564e-07
2.28097e-07
-9.79017e-07
2.12211e-07
-1.0052e-06
1.94957e-07
-1.02895e-06
1.76378e-07
-1.05012e-06
1.56527e-07
-1.06853e-06
1.35468e-07
-1.08407e-06
1.13278e-07
-1.0966e-06
9.00485e-08
-1.10599e-06
6.58846e-08
-1.11215e-06
4.09068e-08
-1.11499e-06
1.52503e-08
-1.11444e-06
-1.09345e-08
-1.11045e-06
-3.74826e-08
-1.10299e-06
-6.42155e-08
-1.09205e-06
-9.09417e-08
-1.07765e-06
-1.17458e-07
-1.05982e-06
-1.43553e-07
-1.03864e-06
-1.69006e-07
-1.0142e-06
-1.93592e-07
-9.86623e-07
-2.17082e-07
-9.56052e-07
-2.39249e-07
-9.22666e-07
-2.59868e-07
-8.86669e-07
-2.78721e-07
-8.48291e-07
-2.956e-07
-8.07788e-07
-3.10309e-07
-7.65438e-07
-3.22673e-07
-7.21542e-07
-3.32533e-07
-6.7642e-07
-3.39756e-07
-6.30408e-07
-3.44238e-07
-5.83853e-07
-3.45903e-07
-5.37115e-07
-3.44709e-07
-4.90554e-07
-3.4065e-07
-4.44532e-07
-3.33757e-07
-3.99409e-07
-3.24102e-07
-3.55531e-07
-3.11795e-07
-3.13232e-07
-2.96989e-07
-2.72827e-07
-2.79879e-07
-2.34604e-07
-2.60699e-07
-1.98825e-07
-2.39726e-07
-1.65714e-07
-2.17276e-07
-1.35462e-07
-1.93706e-07
-1.08215e-07
-1.6941e-07
-8.40769e-08
-1.44819e-07
-6.31036e-08
-1.20401e-07
-4.53051e-08
-9.66602e-08
-3.06434e-08
-7.41337e-08
-1.9034e-08
-5.33946e-08
-1.03487e-08
-3.50502e-08
-4.41958e-09
-1.97398e-08
-1.04531e-09
-8.13333e-09
-9.6147e-10
-2.68882e-09
1.35709e-08
-1.03208e-08
4.23945e-08
-2.24951e-08
7.19694e-08
-3.88384e-08
1.01565e-07
-5.89993e-08
1.30609e-07
-8.26452e-08
1.58636e-07
-1.0946e-07
1.85277e-07
-1.3914e-07
2.10253e-07
-1.71395e-07
2.33361e-07
-2.05947e-07
2.54461e-07
-2.42525e-07
2.73465e-07
-2.80869e-07
2.90329e-07
-3.20727e-07
3.05042e-07
-3.61857e-07
3.17615e-07
-4.0402e-07
3.28081e-07
-4.46989e-07
3.3648e-07
-4.9054e-07
3.42862e-07
-5.34455e-07
3.47275e-07
-5.78521e-07
3.49771e-07
-6.22529e-07
3.50396e-07
-6.66276e-07
3.4919e-07
-7.09557e-07
3.46192e-07
-7.52173e-07
3.41431e-07
-7.93927e-07
3.34935e-07
-8.34623e-07
3.26725e-07
-8.74065e-07
3.1682e-07
-9.12062e-07
3.05237e-07
-9.48423e-07
2.91996e-07
-9.82957e-07
2.77115e-07
-1.01548e-06
2.6062e-07
-1.04581e-06
2.42541e-07
-1.07377e-06
2.22915e-07
-1.09918e-06
2.01792e-07
-1.12188e-06
1.7923e-07
-1.14172e-06
1.55302e-07
-1.15854e-06
1.30094e-07
-1.1722e-06
1.03709e-07
-1.18258e-06
7.62644e-08
-1.18956e-06
4.78943e-08
-1.19306e-06
1.87502e-08
-1.193e-06
-1.09997e-08
-1.18931e-06
-4.11714e-08
-1.18196e-06
-7.1565e-08
-1.17093e-06
-1.01967e-07
-1.15624e-06
-1.32149e-07
-1.13792e-06
-1.61874e-07
-1.11603e-06
-1.90895e-07
-1.09067e-06
-2.18959e-07
-1.06194e-06
-2.45809e-07
-1.03e-06
-2.71188e-07
-9.95029e-07
-2.94842e-07
-9.57227e-07
-3.16523e-07
-9.1683e-07
-3.35996e-07
-8.74101e-07
-3.53038e-07
-8.29328e-07
-3.67446e-07
-7.82821e-07
-3.79039e-07
-7.34915e-07
-3.87663e-07
-6.8596e-07
-3.93193e-07
-6.36323e-07
-3.95539e-07
-5.86383e-07
-3.94649e-07
-5.36522e-07
-3.9051e-07
-4.87128e-07
-3.83152e-07
-4.38583e-07
-3.72647e-07
-3.91262e-07
-3.59115e-07
-3.45528e-07
-3.42724e-07
-3.01721e-07
-3.23685e-07
-2.60162e-07
-3.02258e-07
-2.21137e-07
-2.7875e-07
-1.84903e-07
-2.53511e-07
-1.51674e-07
-2.26934e-07
-1.21626e-07
-1.99458e-07
-9.48879e-08
-1.71557e-07
-7.15406e-08
-1.43749e-07
-5.16178e-08
-1.16583e-07
-3.5104e-08
-9.06474e-08
-2.19364e-08
-6.65622e-08
-1.20073e-08
-4.49793e-08
-5.16801e-09
-2.65791e-08
-1.23553e-09
-1.20658e-08
-2.197e-09
-2.93485e-09
1.65058e-08
-1.12437e-08
5.07033e-08
-2.44666e-08
8.51924e-08
-4.2175e-08
1.19274e-07
-6.39666e-08
1.52401e-07
-8.94633e-08
1.84133e-07
-1.18309e-07
2.14122e-07
-1.50165e-07
2.4211e-07
-1.84713e-07
2.67909e-07
-2.21646e-07
2.91394e-07
-2.60675e-07
3.12494e-07
-3.01521e-07
3.31175e-07
-3.43917e-07
3.47438e-07
-3.87608e-07
3.61306e-07
-4.32346e-07
3.72819e-07
-4.77893e-07
3.82028e-07
-5.24019e-07
3.88987e-07
-5.70498e-07
3.93755e-07
-6.17112e-07
3.96385e-07
-6.63646e-07
3.96929e-07
-7.0989e-07
3.95434e-07
-7.55635e-07
3.91937e-07
-8.00677e-07
3.86473e-07
-8.44813e-07
3.79071e-07
-8.8784e-07
3.69753e-07
-9.29561e-07
3.5854e-07
-9.69775e-07
3.45451e-07
-1.00829e-06
3.30507e-07
-1.0449e-06
3.13728e-07
-1.07942e-06
2.95143e-07
-1.11166e-06
2.74784e-07
-1.14144e-06
2.52694e-07
-1.16858e-06
2.28926e-07
-1.19289e-06
2.03545e-07
-1.21422e-06
1.76633e-07
-1.23241e-06
1.48284e-07
-1.24731e-06
1.18612e-07
-1.2588e-06
8.77452e-08
-1.26673e-06
5.58334e-08
-1.27103e-06
2.30432e-08
-1.27159e-06
-1.04396e-08