/*--------------------------------*- C++ -*----------------------------------*\
| =========                 |                                                 |
| \\      /  F ield         | OpenFOAM: The Open Source CFD Toolbox           |
|  \\    /   O peration     | Version:  2506                                  |
|   \\  /    A nd           | Website:  www.openfoam.com                      |
|    \\/     M anipulation  |                                                 |
\*---------------------------------------------------------------------------*/
FoamFile
{
    version     2.0;
    format      ascii;
    arch        "LSB;label=32;scalar=64";
    class       volVectorField;
    location    "1.275";
    object      U;
}
// * * * * * * * * * * * * * * * * * * * * * * * * * * * * * * * * * * * * * //

dimensions      [0 1 -1 0 0 0 0];

internalField   nonuniform List<vector> 
6400
(
(8.28488e-06 -8.41037e-06 0)
(3.23284e-05 -1.52707e-05 0)
(6.0855e-05 -1.38148e-05 0)
(7.81034e-05 -8.20732e-06 0)
(7.60076e-05 -9.75924e-07 0)
(5.20871e-05 6.6062e-06 0)
(6.04198e-06 1.39216e-05 0)
(-6.12939e-05 2.06846e-05 0)
(-0.000148437 2.67763e-05 0)
(-0.000253586 3.21646e-05 0)
(-0.000374809 3.68599e-05 0)
(-0.000510162 4.08966e-05 0)
(-0.000657752 4.4322e-05 0)
(-0.000815773 4.71853e-05 0)
(-0.000982529 4.95339e-05 0)
(-0.00115644 5.14148e-05 0)
(-0.00133603 5.28709e-05 0)
(-0.00151996 5.39411e-05 0)
(-0.00170695 5.46593e-05 0)
(-0.00189583 5.50511e-05 0)
(-0.00208549 5.51387e-05 0)
(-0.00227489 5.49397e-05 0)
(-0.00246302 5.4465e-05 0)
(-0.0026489 5.37215e-05 0)
(-0.00283159 5.27128e-05 0)
(-0.00301013 5.1439e-05 0)
(-0.00318359 4.98978e-05 0)
(-0.00335101 4.80859e-05 0)
(-0.00351145 4.59982e-05 0)
(-0.00366394 4.36285e-05 0)
(-0.00380751 4.09721e-05 0)
(-0.00394119 3.80265e-05 0)
(-0.004064 3.47897e-05 0)
(-0.00417498 3.12618e-05 0)
(-0.00427318 2.74466e-05 0)
(-0.00435768 2.33517e-05 0)
(-0.0044276 1.89895e-05 0)
(-0.00448211 1.43755e-05 0)
(-0.00452044 9.52965e-06 0)
(-0.00454192 4.4782e-06 0)
(-0.00454598 -7.47813e-07 0)
(-0.00453213 -6.11217e-06 0)
(-0.00450006 -1.15736e-05 0)
(-0.00444956 -1.70872e-05 0)
(-0.00438061 -2.26033e-05 0)
(-0.00429333 -2.8067e-05 0)
(-0.00418805 -3.34209e-05 0)
(-0.00406527 -3.86057e-05 0)
(-0.00392568 -4.356e-05 0)
(-0.00377017 -4.8222e-05 0)
(-0.00359985 -5.25306e-05 0)
(-0.00341599 -5.64251e-05 0)
(-0.00322006 -5.98475e-05 0)
(-0.0030137 -6.27442e-05 0)
(-0.00279872 -6.5067e-05 0)
(-0.00257706 -6.67728e-05 0)
(-0.00235079 -6.78258e-05 0)
(-0.00212207 -6.81983e-05 0)
(-0.00189315 -6.78708e-05 0)
(-0.0016663 -6.68325e-05 0)
(-0.00144381 -6.50826e-05 0)
(-0.00122797 -6.2631e-05 0)
(-0.00102101 -5.94971e-05 0)
(-0.000825057 -5.57093e-05 0)
(-0.000642154 -5.13059e-05 0)
(-0.000474183 -4.63348e-05 0)
(-0.000322851 -4.08525e-05 0)
(-0.000189656 -3.49246e-05 0)
(-7.58498e-05 -2.86261e-05 0)
(1.75946e-05 -2.20442e-05 0)
(9.00281e-05 -1.52794e-05 0)
(0.000141182 -8.45237e-06 0)
(0.000171245 -1.71549e-06 0)
(0.000180975 4.72486e-06 0)
(0.000171877 1.05662e-05 0)
(0.000146482 1.53535e-05 0)
(0.000108717 1.8366e-05 0)
(6.46332e-05 1.84225e-05 0)
(2.46022e-05 1.37316e-05 0)
(3.63626e-06 3.64814e-06 0)
(1.51665e-05 -3.23193e-05 0)
(5.1284e-05 -5.13206e-05 0)
(8.26155e-05 -3.84363e-05 0)
(8.2623e-05 -7.93453e-06 0)
(3.62898e-05 3.10427e-05 0)
(-6.2842e-05 7.30265e-05 0)
(-0.000216754 0.000114821 0)
(-0.000424565 0.00015461 0)
(-0.000683554 0.000191401 0)
(-0.000989892 0.0002247 0)
(-0.00133915 0.000254316 0)
(-0.00172665 0.000280245 0)
(-0.00214763 0.000302595 0)
(-0.00259746 0.000321536 0)
(-0.00307165 0.000337269 0)
(-0.00356594 0.000350004 0)
(-0.00407631 0.000359953 0)
(-0.00459896 0.000367309 0)
(-0.00513033 0.000372244 0)
(-0.00566704 0.00037491 0)
(-0.00620591 0.000375429 0)
(-0.00674388 0.0003739 0)
(-0.00727801 0.000370395 0)
(-0.00780546 0.000364965 0)
(-0.00832342 0.00035764 0)
(-0.00882913 0.000348434 0)
(-0.00931986 0.000337348 0)
(-0.00979288 0.000324373 0)
(-0.0102454 0.000309497 0)
(-0.0106748 0.000292708 0)
(-0.0110783 0.000273996 0)
(-0.011453 0.000253362 0)
(-0.0117965 0.000230817 0)
(-0.0121058 0.000206387 0)
(-0.0123786 0.000180121 0)
(-0.0126123 0.000152087 0)
(-0.0128045 0.000122379 0)
(-0.0129529 9.11203e-05 0)
(-0.0130557 5.84585e-05 0)
(-0.0131111 2.4575e-05 0)
(-0.0131175 -1.0319e-05 0)
(-0.0130738 -4.59835e-05 0)
(-0.0129793 -8.21487e-05 0)
(-0.0128334 -0.000118518 0)
(-0.0126363 -0.00015477 0)
(-0.0123885 -0.000190561 0)
(-0.0120908 -0.000225529 0)
(-0.0117449 -0.000259299 0)
(-0.0113527 -0.000291492 0)
(-0.0109168 -0.000321723 0)
(-0.0104401 -0.000349613 0)
(-0.00992624 -0.000374792 0)
(-0.0093793 -0.00039691 0)
(-0.00880374 -0.000415639 0)
(-0.00820449 -0.000430685 0)
(-0.00758684 -0.000441791 0)
(-0.00695641 -0.000448744 0)
(-0.00631904 -0.000451378 0)
(-0.0056808 -0.00044958 0)
(-0.00504782 -0.000443296 0)
(-0.00442629 -0.000432532 0)
(-0.00382234 -0.000417356 0)
(-0.00324193 -0.000397899 0)
(-0.00269082 -0.000374356 0)
(-0.00217444 -0.000346985 0)
(-0.00169779 -0.000316105 0)
(-0.0012654 -0.000282101 0)
(-0.00088119 -0.000245426 0)
(-0.000548378 -0.0002066 0)
(-0.00026939 -0.000166228 0)
(-4.57166e-05 -0.000125015 0)
(0.000122235 -8.37947e-05 0)
(0.000235341 -4.35853e-05 0)
(0.000296023 -5.67616e-06 0)
(0.000308621 2.82346e-05 0)
(0.000279881 5.58459e-05 0)
(0.000219414 7.39795e-05 0)
(0.000140418 7.8216e-05 0)
(6.2716e-05 6.28385e-05 0)
(1.36202e-05 2.45179e-05 0)
(1.39967e-05 -6.11014e-05 0)
(3.89521e-05 -8.27239e-05 0)
(4.05213e-05 -4.00662e-05 0)
(-9.78244e-06 4.03445e-05 0)
(-0.00012905 0.000140915 0)
(-0.000325629 0.000249919 0)
(-0.000602526 0.000359763 0)
(-0.000959008 0.000465681 0)
(-0.00139172 0.000564796 0)
(-0.0018956 0.000655475 0)
(-0.00246456 0.000736899 0)
(-0.00309193 0.00080879 0)
(-0.00377084 0.000871217 0)
(-0.00449441 0.000924462 0)
(-0.0052559 0.000968933 0)
(-0.0060488 0.0010051 0)
(-0.00686689 0.00103344 0)
(-0.00770425 0.00105441 0)
(-0.00855524 0.00106846 0)
(-0.0094145 0.00107596 0)
(-0.0102769 0.00107722 0)
(-0.0111375 0.0010725 0)
(-0.0119916 0.001062 0)
(-0.0128345 0.00104587 0)
(-0.0136617 0.0010242 0)
(-0.0144688 0.000997033 0)
(-0.0152512 0.000964405 0)
(-0.0160046 0.000926313 0)
(-0.0167246 0.000882748 0)
(-0.0174069 0.000833704 0)
(-0.018047 0.000779188 0)
(-0.0186407 0.00071923 0)
(-0.0191837 0.000653894 0)
(-0.0196719 0.000583289 0)
(-0.0201012 0.000507576 0)
(-0.0204678 0.000426978 0)
(-0.020768 0.000341785 0)
(-0.0209986 0.000252364 0)
(-0.0211564 0.000159156 0)
(-0.0212388 6.26824e-05 0)
(-0.0212437 -3.64515e-05 0)
(-0.0211695 -0.000137563 0)
(-0.0210149 -0.000239895 0)
(-0.0207795 -0.000342614 0)
(-0.0204635 -0.000444826 0)
(-0.0200678 -0.000545578 0)
(-0.019594 -0.000643874 0)
(-0.0190446 -0.000738686 0)
(-0.0184228 -0.000828967 0)
(-0.0177326 -0.00091367 0)
(-0.0169787 -0.000991762 0)
(-0.0161668 -0.00106224 0)
(-0.0153032 -0.00112415 0)
(-0.0143948 -0.00117661 0)
(-0.0134492 -0.00121882 0)
(-0.0124748 -0.0012501 0)
(-0.01148 -0.00126987 0)
(-0.0104739 -0.00127768 0)
(-0.00946588 -0.00127326 0)
(-0.00846533 -0.00125645 0)
(-0.00748174 -0.00122728 0)
(-0.00652451 -0.00118597 0)
(-0.00560281 -0.00113287 0)
(-0.00472542 -0.00106856 0)
(-0.00390063 -0.000993747 0)
(-0.00313611 -0.000909354 0)
(-0.0024387 -0.000816477 0)
(-0.00181432 -0.000716404 0)
(-0.00126781 -0.000610631 0)
(-0.000802732 -0.000500888 0)
(-0.000421194 -0.000389183 0)
(-0.000123633 -0.000277877 0)
(9.14568e-05 -0.000169788 0)
(0.000227856 -6.83623e-05 0)
(0.000292035 2.20917e-05 0)
(0.000293647 9.60902e-05 0)
(0.000245871 0.000146633 0)
(0.000165872 0.000164913 0)
(7.84017e-05 0.000140542 0)
(1.82851e-05 6.43427e-05 0)
(8.60939e-06 -7.88174e-05 0)
(8.67239e-06 -8.29436e-05 0)
(-4.03721e-05 1.02928e-05 0)
(-0.000163369 0.000162327 0)
(-0.000376316 0.000347218 0)
(-0.000687747 0.000546749 0)
(-0.00110073 0.000748421 0)
(-0.00161427 0.000943955 0)
(-0.00222442 0.00112806 0)
(-0.00292518 0.00129752 0)
(-0.00370922 0.00145055 0)
(-0.00456839 0.00158636 0)
(-0.00549418 0.00170484 0)
(-0.00647792 0.0018063 0)
(-0.00751104 0.00189132 0)
(-0.00858518 0.00196063 0)
(-0.00969223 0.00201501 0)
(-0.0108244 0.00205524 0)
(-0.0119743 0.00208206 0)
(-0.0131347 0.00209613 0)
(-0.0142987 0.002098 0)
(-0.0154597 0.00208815 0)
(-0.0166113 0.00206695 0)
(-0.0177472 0.00203465 0)
(-0.0188612 0.00199145 0)
(-0.0199472 0.00193748 0)
(-0.0209993 0.00187279 0)
(-0.0220115 0.00179743 0)
(-0.0229779 0.0017114 0)
(-0.0238925 0.00161475 0)
(-0.0247497 0.00150751 0)
(-0.0255436 0.00138979 0)
(-0.0262687 0.00126175 0)
(-0.0269194 0.00112365 0)
(-0.0274905 0.000975835 0)
(-0.0279769 0.000818771 0)
(-0.0283739 0.000653051 0)
(-0.0286772 0.000479404 0)
(-0.028883 0.000298705 0)
(-0.0289878 0.000111976 0)
(-0.028989 -7.9612e-05 0)
(-0.0288846 -0.000274743 0)
(-0.0286731 -0.00047196 0)
(-0.0283541 -0.000669677 0)
(-0.0279281 -0.000866189 0)
(-0.0273963 -0.00105969 0)
(-0.0267611 -0.0012483 0)
(-0.0260257 -0.00143009 0)
(-0.0251944 -0.00160308 0)
(-0.0242726 -0.0017653 0)
(-0.0232666 -0.00191482 0)
(-0.0221838 -0.00204977 0)
(-0.0210325 -0.00216837 0)
(-0.0198217 -0.00226897 0)
(-0.0185616 -0.00235009 0)
(-0.0172627 -0.00241044 0)
(-0.0159364 -0.00244897 0)
(-0.0145943 -0.00246486 0)
(-0.0132487 -0.00245756 0)
(-0.0119117 -0.00242685 0)
(-0.0105958 -0.00237279 0)
(-0.009313 -0.00229577 0)
(-0.00807535 -0.00219651 0)
(-0.0068942 -0.00207609 0)
(-0.0057803 -0.00193591 0)
(-0.00474354 -0.00177772 0)
(-0.00379279 -0.00160362 0)
(-0.00293566 -0.00141611 0)
(-0.00217836 -0.00121806 0)
(-0.00152544 -0.00101279 0)
(-0.000979557 -0.000804118 0)
(-0.000541247 -0.000596508 0)
(-0.0002086 -0.000395184 0)
(2.30583e-05 -0.000206379 0)
(0.000161564 -3.76246e-05 0)
(0.000218352 0.000101873 0)
(0.000208688 0.000200856 0)
(0.000152023 0.000245753 0)
(7.57701e-05 0.000220807 0)
(1.84439e-05 0.000108593 0)
(1.44614e-06 -7.73267e-05 0)
(-3.10342e-05 -3.60089e-05 0)
(-0.000144149 0.000131347 0)
(-0.000355185 0.000376342 0)
(-0.000676759 0.000665685 0)
(-0.00111628 0.000975181 0)
(-0.00167597 0.00128761 0)
(-0.002354 0.00159114 0)
(-0.00314564 0.00187787 0)
(-0.00404395 0.00214278 0)
(-0.00504054 0.00238293 0)
(-0.00612607 0.00259683 0)
(-0.00729067 0.00278404 0)
(-0.00852423 0.00294481 0)
(-0.00981666 0.00307983 0)
(-0.011158 0.00319005 0)
(-0.0125387 0.00327654 0)
(-0.0139492 0.0033404 0)
(-0.0153805 0.0033827 0)
(-0.0168239 0.00340438 0)
(-0.0182708 0.00340628 0)
(-0.0197132 0.0033891 0)
(-0.021143 0.00335341 0)
(-0.0225525 0.00329962 0)
(-0.0239339 0.00322804 0)
(-0.0252797 0.00313889 0)
(-0.0265825 0.00303229 0)
(-0.027835 0.00290834 0)
(-0.0290297 0.00276711 0)
(-0.0301595 0.0026087 0)
(-0.0312171 0.00243325 0)
(-0.0321957 0.00224096 0)
(-0.0330883 0.00203216 0)
(-0.0338882 0.00180731 0)
(-0.0345891 0.00156703 0)
(-0.0351849 0.0013121 0)
(-0.03567 0.00104352 0)
(-0.0360392 0.000762497 0)
(-0.036288 0.00047047 0)
(-0.0364123 0.000169096 0)
(-0.0364091 -0.000139734 0)
(-0.036276 -0.000453906 0)
(-0.0360116 -0.00077109 0)
(-0.0356154 -0.00108876 0)
(-0.035088 -0.0014042 0)
(-0.0344312 -0.00171457 0)
(-0.0336478 -0.00201689 0)
(-0.032742 -0.0023081 0)
(-0.0317191 -0.00258511 0)
(-0.0305855 -0.00284483 0)
(-0.0293491 -0.00308422 0)
(-0.0280187 -0.00330035 0)
(-0.0266042 -0.00349043 0)
(-0.0251169 -0.0036519 0)
(-0.0235686 -0.00378244 0)
(-0.0219722 -0.00388004 0)
(-0.0203413 -0.00394305 0)
(-0.01869 -0.00397021 0)
(-0.0170328 -0.00396068 0)
(-0.0153845 -0.00391411 0)
(-0.0137599 -0.00383062 0)
(-0.0121735 -0.00371084 0)
(-0.0106397 -0.00355594 0)
(-0.00917211 -0.00336762 0)
(-0.00778363 -0.00314813 0)
(-0.00648613 -0.00290026 0)
(-0.00529023 -0.00262738 0)
(-0.00420507 -0.00233345 0)
(-0.00323808 -0.00202305 0)
(-0.00239475 -0.00170144 0)
(-0.00167832 -0.00137467 0)
(-0.00108957 -0.00104967 0)
(-0.000626468 -0.00073447 0)
(-0.000283915 -0.000438465 0)
(-5.33484e-05 -0.00017271 0)
(7.75919e-05 4.96615e-05 0)
(0.000125252 0.000213009 0)
(0.00011029 0.000298876 0)
(6.10038e-05 0.000285783 0)
(1.59923e-05 0.000147735 0)
(-6.33275e-06 -5.33982e-05 0)
(-7.52941e-05 6.63085e-05 0)
(-0.000260561 0.000334181 0)
(-0.000569592 0.000694638 0)
(-0.00101009 0.00110837 0)
(-0.00158731 0.00154607 0)
(-0.00230178 0.00198626 0)
(-0.00315035 0.00241377 0)
(-0.00412712 0.00281817 0)
(-0.00522414 0.00319259 0)
(-0.00643193 0.00353284 0)
(-0.00774007 0.00383665 0)
(-0.00913751 0.00410315 0)
(-0.0106129 0.00433244 0)
(-0.0121549 0.00452527 0)
(-0.0137523 0.00468276 0)
(-0.0153939 0.00480626 0)
(-0.017069 0.00489717 0)
(-0.0187672 0.00495685 0)
(-0.0204782 0.00498658 0)
(-0.0221923 0.00498746 0)
(-0.0238998 0.00496044 0)
(-0.0255914 0.00490629 0)
(-0.0272578 0.0048256 0)
(-0.0288902 0.00471881 0)
(-0.0304795 0.00458626 0)
(-0.032017 0.00442815 0)
(-0.0334941 0.00424468 0)
(-0.034902 0.004036 0)
(-0.0362325 0.0038023 0)
(-0.037477 0.00354385 0)
(-0.0386274 0.00326103 0)
(-0.0396758 0.00295437 0)
(-0.0406144 0.00262459 0)
(-0.0414358 0.00227266 0)
(-0.0421332 0.00189978 0)
(-0.0427 0.00150745 0)
(-0.0431304 0.00109745 0)
(-0.0434191 0.0006719 0)
(-0.0435618 0.00023322 0)
(-0.0435549 -0.00021584 0)
(-0.0433958 -0.000672217 0)
(-0.043083 -0.00113256 0)
(-0.0426161 -0.00159322 0)
(-0.0419959 -0.00205034 0)
(-0.0412246 -0.00249983 0)
(-0.0403056 -0.00293744 0)
(-0.0392436 -0.00335883 0)
(-0.0380449 -0.0037596 0)
(-0.036717 -0.00413535 0)
(-0.0352688 -0.00448178 0)
(-0.0337106 -0.00479472 0)
(-0.032054 -0.00507025 0)
(-0.0303115 -0.00530472 0)
(-0.028497 -0.00549487 0)
(-0.0266253 -0.00563783 0)
(-0.0247118 -0.00573129 0)
(-0.0227728 -0.00577347 0)
(-0.0208249 -0.00576319 0)
(-0.018885 -0.00569995 0)
(-0.0169701 -0.00558394 0)
(-0.0150969 -0.00541609 0)
(-0.0132818 -0.00519806 0)
(-0.0115406 -0.00493229 0)
(-0.00988803 -0.00462201 0)
(-0.00833771 -0.00427123 0)
(-0.00690189 -0.00388478 0)
(-0.00559113 -0.00346833 0)
(-0.00441405 -0.00302844 0)
(-0.00337706 -0.00257258 0)
(-0.00248412 -0.00210931 0)
(-0.00173642 -0.00164834 0)
(-0.00113211 -0.00120079 0)
(-0.000666074 -0.000779419 0)
(-0.000329552 -0.00039899 0)
(-0.000109912 -7.66584e-05 0)
(9.53153e-06 0.000167543 0)
(4.98181e-05 0.000310311 0)
(3.86985e-05 0.000324575 0)
(1.21537e-05 0.000176735 0)
(-1.41893e-05 -5.79577e-06 0)
(-0.000121361 0.00022838 0)
(-0.000383148 0.000625476 0)
(-0.000796141 0.0011251 0)
(-0.00136219 0.0016834 0)
(-0.00208361 0.00226693 0)
(-0.00295863 0.00285066 0)
(-0.00398223 0.00341647 0)
(-0.00514702 0.00395163 0)
(-0.0064438 0.00444755 0)
(-0.00786196 0.00489879 0)
(-0.00938997 0.0053023 0)
(-0.0110157 0.00565677 0)
(-0.0127267 0.00596208 0)
(-0.0145105 0.006219 0)
(-0.0163546 0.00642881 0)
(-0.0182469 0.00659307 0)
(-0.0201753 0.00671348 0)
(-0.0221281 0.0067917 0)
(-0.024094 0.00682929 0)
(-0.0260618 0.00682765 0)
(-0.0280208 0.00678797 0)
(-0.0299602 0.00671123 0)
(-0.0318698 0.0065982 0)
(-0.0337391 0.00644948 0)
(-0.0355581 0.00626552 0)
(-0.0373169 0.00604665 0)
(-0.0390056 0.00579317 0)
(-0.0406143 0.00550534 0)
(-0.0421336 0.0051835 0)
(-0.043554 0.00482807 0)
(-0.0448661 0.00443965 0)
(-0.0460612 0.00401904 0)
(-0.0471304 0.0035673 0)
(-0.0480656 0.00308579 0)
(-0.0488589 0.00257622 0)
(-0.0495033 0.00204067 0)
(-0.0499921 0.0014816 0)
(-0.0503196 0.000901918 0)
(-0.0504811 0.00030492 0)
(-0.0504725 -0.000305663 0)
(-0.0502911 -0.000925693 0)
(-0.0499353 -0.00155065 0)
(-0.0494047 -0.00217565 0)
(-0.0487004 -0.00279549 0)
(-0.0478248 -0.00340473 0)
(-0.0467817 -0.00399769 0)
(-0.0455766 -0.00456858 0)
(-0.0442163 -0.00511153 0)
(-0.0427094 -0.00562069 0)
(-0.0410658 -0.00609035 0)
(-0.0392969 -0.00651498 0)
(-0.0374155 -0.00688934 0)
(-0.0354359 -0.0072086 0)
(-0.0333733 -0.00746842 0)
(-0.0312442 -0.00766501 0)
(-0.0290657 -0.00779529 0)
(-0.026856 -0.00785688 0)
(-0.0246336 -0.00784823 0)
(-0.0224173 -0.00776867 0)
(-0.0202261 -0.00761846 0)
(-0.0180785 -0.00739883 0)
(-0.015993 -0.007112 0)
(-0.0139871 -0.00676124 0)
(-0.0120773 -0.00635086 0)
(-0.010279 -0.00588623 0)
(-0.00860593 -0.0053738 0)
(-0.00707003 -0.00482115 0)
(-0.00568112 -0.00423699 0)
(-0.00444664 -0.00363126 0)
(-0.00337135 -0.00301522 0)
(-0.00245708 -0.00240159 0)
(-0.00170247 -0.00180474 0)
(-0.0011027 -0.00124097 0)
(-0.000649288 -0.000728799 0)
(-0.00032983 -0.000289427 0)
(-0.000127876 5.28071e-05 0)
(-2.26621e-05 0.000269968 0)
(1.19592e-05 0.00032987 0)
(7.64151e-06 0.000192709 0)
(-2.18862e-05 6.57647e-05 0)
(-0.000167721 0.000452219 0)
(-0.000507964 0.00100885 0)
(-0.00102804 0.00167239 0)
(-0.00172346 0.00239583 0)
(-0.0025931 0.00314263 0)
(-0.00363237 0.00388494 0)
(-0.00483396 0.00460223 0)
(-0.0061887 0.00527983 0)
(-0.00768588 0.00590763 0)
(-0.00931364 0.0064791 0)
(-0.0110593 0.00699046 0)
(-0.0129096 0.00743996 0)
(-0.0148512 0.00782731 0)
(-0.0168704 0.00815327 0)
(-0.0189538 0.00841922 0)
(-0.0210881 0.00862697 0)
(-0.0232604 0.00877845 0)
(-0.0254577 0.00887564 0)
(-0.0276677 0.00892037 0)
(-0.0298781 0.0089143 0)
(-0.032077 0.00885888 0)
(-0.0342526 0.00875529 0)
(-0.0363935 0.0086045 0)
(-0.0384882 0.00840725 0)
(-0.0405256 0.00816414 0)
(-0.0424946 0.00787564 0)
(-0.0443843 0.00754215 0)
(-0.0461838 0.0071641 0)
(-0.0478825 0.00674198 0)
(-0.0494701 0.00627643 0)
(-0.0509362 0.0057683 0)
(-0.0522711 0.00521869 0)
(-0.0534652 0.00462907 0)
(-0.0545095 0.00400127 0)
(-0.0553954 0.00333756 0)
(-0.0561152 0.00264069 0)
(-0.0566617 0.0019139 0)
(-0.0570286 0.00116095 0)
(-0.0572107 0.000386136 0)
(-0.0572037 -0.000405734 0)
(-0.0570048 -0.00120933 0)
(-0.0566121 -0.00201885 0)
(-0.0560253 -0.00282804 0)
(-0.0552456 -0.00363026 0)
(-0.0542755 -0.00441853 0)
(-0.0531194 -0.00518565 0)
(-0.0517832 -0.00592421 0)
(-0.0502743 -0.00662677 0)
(-0.0486021 -0.00728589 0)
(-0.0467773 -0.0078943 0)
(-0.0448124 -0.00844497 0)
(-0.0427213 -0.00893125 0)
(-0.0405195 -0.00934699 0)
(-0.0382236 -0.00968668 0)
(-0.0358515 -0.0099455 0)
(-0.033422 -0.0101195 0)
(-0.0309549 -0.0102056 0)
(-0.0284703 -0.010202 0)
(-0.0259888 -0.0101076 0)
(-0.0235312 -0.00992283 0)
(-0.021118 -0.00964922 0)
(-0.0187691 -0.00928959 0)
(-0.016504 -0.00884808 0)
(-0.014341 -0.00833015 0)
(-0.0122968 -0.00774266 0)
(-0.0103869 -0.00709379 0)
(-0.00862463 -0.00639317 0)
(-0.00702097 -0.00565184 0)
(-0.00558453 -0.00488236 0)
(-0.00432106 -0.00409886 0)
(-0.00323324 -0.00331719 0)
(-0.00232042 -0.00255512 0)
(-0.00157845 -0.00183254 0)
(-0.00099944 -0.00117179 0)
(-0.000571652 -0.000598028 0)
(-0.000279317 -0.00013975 0)
(-0.000102446 0.000170803 0)
(-1.71848e-05 0.000296957 0)
(2.86968e-06 0.000194073 0)
(-2.93305e-05 0.000161053 0)
(-0.000213565 0.00073831 0)
(-0.000632643 0.00148577 0)
(-0.00126095 0.0023388 0)
(-0.00208748 0.00324842 0)
(-0.00310735 0.00417597 0)
(-0.00431283 0.00509157 0)
(-0.005694 0.00597286 0)
(-0.0072396 0.00680363 0)
(-0.00893724 0.00757258 0)
(-0.0107736 0.00827229 0)
(-0.0127349 0.00889837 0)
(-0.0148066 0.00944872 0)
(-0.0169744 0.00992292 0)
(-0.0192237 0.0103217 0)
(-0.0215401 0.0106466 0)
(-0.0239094 0.0108997 0)
(-0.0263175 0.0110831 0)
(-0.0287508 0.0111991 0)
(-0.0311959 0.0112497 0)
(-0.0336395 0.011237 0)
(-0.0360687 0.0111626 0)
(-0.0384709 0.0110278 0)
(-0.0408334 0.0108339 0)
(-0.043144 0.0105817 0)
(-0.0453904 0.010272 0)
(-0.0475607 0.00990536 0)
(-0.0496429 0.0094824 0)
(-0.0516253 0.00900367 0)
(-0.0534963 0.00846987 0)
(-0.0552446 0.00788186 0)
(-0.0568592 0.00724078 0)
(-0.0583293 0.00654812 0)
(-0.0596446 0.00580577 0)
(-0.0607955 0.0050161 0)
(-0.0617725 0.004182 0)
(-0.0625674 0.00330696 0)
(-0.0631724 0.00239506 0)
(-0.0635808 0.00145101 0)
(-0.063787 0.000480174 0)
(-0.0637863 -0.000511454 0)
(-0.0635755 -0.00151726 0)
(-0.0631528 -0.00253006 0)
(-0.0625177 -0.00354213 0)
(-0.0616715 -0.00454525 0)
(-0.060617 -0.00553085 0)
(-0.0593586 -0.00649002 0)
(-0.0579026 -0.00741368 0)
(-0.0562571 -0.00829263 0)
(-0.0544319 -0.00911776 0)
(-0.0524385 -0.0098801 0)
(-0.0502903 -0.010571 0)
(-0.0480022 -0.0111823 0)
(-0.0455906 -0.0117064 0)
(-0.0430734 -0.0121365 0)
(-0.0404699 -0.0124667 0)
(-0.0378003 -0.012692 0)
(-0.0350856 -0.0128087 0)
(-0.0323479 -0.0128144 0)
(-0.0296091 -0.0127078 0)
(-0.0268919 -0.0124894 0)
(-0.0242183 -0.012161 0)
(-0.0216102 -0.011726 0)
(-0.0190886 -0.0111895 0)
(-0.0166735 -0.0105581 0)
(-0.0143833 -0.00984031 0)
(-0.0122351 -0.00904607 0)
(-0.0102435 -0.00818717 0)
(-0.00842104 -0.00727711 0)
(-0.00677755 -0.00633118 0)
(-0.00531991 -0.00536651 0)
(-0.00405187 -0.0044022 0)
(-0.00297377 -0.00345949 0)
(-0.00208237 -0.00256189 0)
(-0.0013707 -0.00173553 0)
(-0.000827996 -0.00100949 0)
(-0.000439519 -0.000416191 0)
(-0.0001864 8.16286e-06 0)
(-4.74659e-05 0.000223033 0)
(-1.93382e-06 0.000180081 0)
(-3.64965e-05 0.000279576 0)
(-0.000258474 0.00108622 0)
(-0.000755789 0.00205631 0)
(-0.00149212 0.00312494 0)
(-0.00244997 0.00424218 0)
(-0.00362055 0.00536813 0)
(-0.00499277 0.00647161 0)
(-0.00655387 0.00752903 0)
(-0.00829029 0.00852312 0)
(-0.0101878 0.00944172 0)
(-0.0122315 0.0102768 0)
(-0.0144062 0.0110235 0)
(-0.0166964 0.0116796 0)
(-0.0190866 0.0122445 0)
(-0.0215613 0.012719 0)
(-0.0241053 0.0131049 0)
(-0.0267034 0.0134044 0)
(-0.0293408 0.01362 0)
(-0.0320029 0.0137541 0)
(-0.0346755 0.0138091 0)
(-0.0373444 0.0137872 0)
(-0.039996 0.0136903 0)
(-0.0426166 0.01352 0)
(-0.0451929 0.0132777 0)
(-0.0477116 0.0129643 0)
(-0.0501596 0.0125809 0)
(-0.0525242 0.0121282 0)
(-0.0547924 0.0116068 0)
(-0.0569517 0.0110176 0)
(-0.0589898 0.0103614 0)
(-0.0608944 0.00963938 0)
(-0.0626538 0.00885303 0)
(-0.0642564 0.00800422 0)
(-0.0656913 0.0070953 0)
(-0.0669479 0.00612924 0)
(-0.0680165 0.0051096 0)
(-0.068888 0.00404066 0)
(-0.0695541 0.0029274 0)
(-0.0700076 0.00177556 0)
(-0.0702424 0.000591637 0)
(-0.0702537 -0.000617118 0)
(-0.0700379 -0.00184273 0)
(-0.0695928 -0.00307654 0)
(-0.068918 -0.00430924 0)
(-0.0680146 -0.00553099 0)
(-0.0668855 -0.00673147 0)
(-0.0655353 -0.0079 0)
(-0.0639705 -0.00902567 0)
(-0.0621996 -0.0100975 0)
(-0.0602328 -0.0111045 0)
(-0.0580822 -0.0120359 0)
(-0.0557619 -0.0128813 0)
(-0.0532875 -0.013631 0)
(-0.0506766 -0.0142758 0)
(-0.047948 -0.0148074 0)
(-0.0451222 -0.0152187 0)
(-0.0422205 -0.0155038 0)
(-0.0392657 -0.0156581 0)
(-0.0362809 -0.0156785 0)
(-0.03329 -0.0155636 0)
(-0.030317 -0.0153137 0)
(-0.0273857 -0.014931 0)
(-0.0245197 -0.0144194 0)
(-0.0217418 -0.0137849 0)
(-0.0190735 -0.0130355 0)
(-0.0165351 -0.0121811 0)
(-0.0141451 -0.0112337 0)
(-0.01192 -0.0102072 0)
(-0.00987362 -0.0091178 0)
(-0.00801726 -0.00798348 0)
(-0.00635917 -0.00682451 0)
(-0.00490436 -0.00566329 0)
(-0.00365437 -0.00452457 0)
(-0.00260712 -0.00343555 0)
(-0.00175683 -0.00242612 0)
(-0.00109397 -0.00152914 0)
(-0.000605053 -0.000780808 0)
(-0.000272558 -0.000220952 0)
(-7.81392e-05 0.000106543 0)
(-6.6534e-06 0.000150482 0)
(-4.33884e-05 0.000420726 0)
(-0.000302246 0.00149499 0)
(-0.000876594 0.00271961 0)
(-0.00171983 0.00403022 0)
(-0.00280811 0.0053768 0)
(-0.0041287 0.00671895 0)
(-0.00566704 0.00802489 0)
(-0.00740737 0.00927039 0)
(-0.00933369 0.0104376 0)
(-0.0114297 0.0115138 0)
(-0.013679 0.0124907 0)
(-0.0160648 0.0133633 0)
(-0.0185705 0.0141292 0)
(-0.0211796 0.0147879 0)
(-0.0238756 0.0153405 0)
(-0.0266423 0.0157888 0)
(-0.029464 0.0161352 0)
(-0.0323248 0.0163827 0)
(-0.0352096 0.0165338 0)
(-0.0381033 0.0165913 0)
(-0.0409911 0.0165576 0)
(-0.0438584 0.0164348 0)
(-0.0466909 0.0162247 0)
(-0.0494745 0.0159289 0)
(-0.0521951 0.0155485 0)
(-0.054839 0.0150846 0)
(-0.0573924 0.0145382 0)
(-0.0598418 0.01391 0)
(-0.0621739 0.0132011 0)
(-0.0643756 0.0124126 0)
(-0.0664338 0.0115459 0)
(-0.0683362 0.0106028 0)
(-0.0700704 0.00958569 0)
(-0.0716248 0.00849736 0)
(-0.0729883 0.0073414 0)
(-0.0741504 0.0061221 0)
(-0.0751014 0.00484458 0)
(-0.0758326 0.00351476 0)
(-0.0763363 0.00213946 0)
(-0.0766058 0.000726366 0)
(-0.0766359 -0.000715949 0)
(-0.0764227 -0.00217808 0)
(-0.0759638 -0.00364982 0)
(-0.0752585 -0.00512022 0)
(-0.0743077 -0.0065777 0)
(-0.0731142 -0.00801013 0)
(-0.0716827 -0.00940496 0)
(-0.0700198 -0.0107494 0)
(-0.0681342 -0.0120304 0)
(-0.0660363 -0.0132352 0)
(-0.0637389 -0.014351 0)
(-0.0612565 -0.0153657 0)
(-0.0586055 -0.0162676 0)
(-0.055804 -0.0170459 0)
(-0.052872 -0.017691 0)
(-0.0498309 -0.0181942 0)
(-0.0467034 -0.0185485 0)
(-0.0435134 -0.0187484 0)
(-0.0402855 -0.0187901 0)
(-0.0370451 -0.0186718 0)
(-0.0338178 -0.0183938 0)
(-0.0306291 -0.0179584 0)
(-0.0275042 -0.0173701 0)
(-0.0244678 -0.0166358 0)
(-0.0215432 -0.0157649 0)
(-0.0187525 -0.0147687 0)
(-0.0161159 -0.0136612 0)
(-0.0136516 -0.0124587 0)
(-0.011375 -0.0111798 0)
(-0.00929926 -0.00984561 0)
(-0.00743397 -0.00847938 0)
(-0.00578568 -0.00710697 0)
(-0.00435734 -0.00575667 0)
(-0.00314827 -0.00445936 0)
(-0.00215406 -0.00324867 0)
(-0.00136662 -0.00216119 0)
(-0.000773898 -0.00123673 0)
(-0.0003598 -0.000518492 0)
(-0.000108813 -5.33188e-05 0)
(-1.12404e-05 0.000105287 0)
(-5.00226e-05 0.00058385 0)
(-0.000344796 0.00196333 0)
(-0.000994608 0.00347419 0)
(-0.00194302 0.00505324 0)
(-0.00316005 0.00665099 0)
(-0.00462905 0.00822726 0)
(-0.00633195 0.00975027 0)
(-0.00824994 0.0111957 0)
(-0.0103645 0.0125455 0)
(-0.0126571 0.013787 0)
(-0.0151097 0.0149119 0)
(-0.017704 0.0159151 0)
(-0.0204221 0.0167944 0)
(-0.0232465 0.0175495 0)
(-0.0261599 0.0181818 0)
(-0.0291451 0.0186934 0)
(-0.0321855 0.019087 0)
(-0.0352648 0.0193657 0)
(-0.038367 0.0195326 0)
(-0.0414764 0.0195905 0)
(-0.0445774 0.0195423 0)
(-0.047655 0.0193901 0)
(-0.050694 0.0191361 0)
(-0.0536798 0.0187819 0)
(-0.0565976 0.0183289 0)
(-0.0594328 0.0177782 0)
(-0.0621712 0.0171311 0)
(-0.0647985 0.0163884 0)
(-0.0673008 0.0155513 0)
(-0.069664 0.0146213 0)
(-0.0718748 0.0136 0)
(-0.0739198 0.0124897 0)
(-0.0757863 0.0112929 0)
(-0.0774618 0.0100133 0)
(-0.0789347 0.00865488 0)
(-0.0801938 0.00722279 0)
(-0.0812289 0.00572298 0)
(-0.0820306 0.00416235 0)
(-0.0825907 0.00254884 0)
(-0.0829021 0.000891379 0)
(-0.0829591 -0.000800115 0)
(-0.0827572 -0.00251474 0)
(-0.0822938 -0.0042407 0)
(-0.0815678 -0.00596533 0)
(-0.0805798 -0.00767524 0)
(-0.0793324 -0.00935641 0)
(-0.0778303 -0.0109943 0)
(-0.07608 -0.0125742 0)
(-0.0740902 -0.0140809 0)
(-0.0718716 -0.0154997 0)
(-0.0694372 -0.0168157 0)
(-0.0668018 -0.0180148 0)
(-0.0639825 -0.0190835 0)
(-0.0609981 -0.0200092 0)
(-0.0578693 -0.0207805 0)
(-0.0546185 -0.0213874 0)
(-0.0512696 -0.0218214 0)
(-0.0478476 -0.0220761 0)
(-0.0443786 -0.0221469 0)
(-0.0408893 -0.0220315 0)
(-0.0374071 -0.0217299 0)
(-0.0339593 -0.0212446 0)
(-0.0305727 -0.0205807 0)
(-0.0272739 -0.0197459 0)
(-0.0240881 -0.0187508 0)
(-0.0210393 -0.0176084 0)
(-0.0181496 -0.0163346 0)
(-0.015439 -0.0149481 0)
(-0.0129251 -0.0134701 0)
(-0.0106224 -0.0119245 0)
(-0.00854261 -0.0103381 0)
(-0.00669376 -0.00873989 0)
(-0.00508049 -0.00716192 0)
(-0.0037037 -0.00563876 0)
(-0.00256056 -0.00420777 0)
(-0.00164452 -0.00290922 0)
(-0.000945088 -0.00178644 0)
(-0.000447622 -0.000885822 0)
(-0.000139335 -0.000256965 0)
(-1.56864e-05 4.46247e-05 0)
(-5.64145e-05 0.000768285 0)
(-0.000386094 0.0024898 0)
(-0.00110958 0.00431822 0)
(-0.00216103 0.00619201 0)
(-0.00350455 0.00806276 0)
(-0.00511968 0.00989109 0)
(-0.00698486 0.0116458 0)
(-0.00907819 0.0133029 0)
(-0.0113785 0.0148448 0)
(-0.0138653 0.016259 0)
(-0.0165184 0.0175376 0)
(-0.0193182 0.0186758 0)
(-0.0222456 0.0196718 0)
(-0.0252818 0.0205257 0)
(-0.0284086 0.021239 0)
(-0.0316081 0.0218144 0)
(-0.034863 0.022255 0)
(-0.0381562 0.0225642 0)
(-0.0414711 0.0227454 0)
(-0.0447914 0.0228017 0)
(-0.0481011 0.0227362 0)
(-0.0513844 0.0225514 0)
(-0.0546256 0.0222495 0)
(-0.0578095 0.0218324 0)
(-0.0609207 0.0213015 0)
(-0.0639441 0.0206583 0)
(-0.0668649 0.0199039 0)
(-0.069668 0.0190396 0)
(-0.072339 0.0180666 0)
(-0.0748634 0.0169867 0)
(-0.0772269 0.0158018 0)
(-0.0794158 0.0145144 0)
(-0.0814165 0.0131278 0)
(-0.0832161 0.0116458 0)
(-0.0848023 0.0100734 0)
(-0.0861632 0.00841636 0)
(-0.0872881 0.00668147 0)
(-0.0881671 0.0048767 0)
(-0.0887912 0.00301108 0)
(-0.0891528 0.00109482 0)
(-0.0892456 -0.000860763 0)
(-0.0890648 -0.00284326 0)
(-0.088607 -0.00483921 0)
(-0.0878709 -0.00683419 0)
(-0.0868566 -0.00881296 0)
(-0.0855664 -0.0107595 0)
(-0.0840046 -0.0126573 0)
(-0.0821777 -0.0144895 0)
(-0.0800943 -0.0162388 0)
(-0.077765 -0.0178882 0)
(-0.0752029 -0.0194208 0)
(-0.0724233 -0.0208204 0)
(-0.0694434 -0.0220713 0)
(-0.0662829 -0.0231591 0)
(-0.0629629 -0.0240705 0)
(-0.0595069 -0.0247939 0)
(-0.0559397 -0.0253195 0)
(-0.0522875 -0.0256395 0)
(-0.0485778 -0.0257484 0)
(-0.0448389 -0.0256433 0)
(-0.0410996 -0.0253239 0)
(-0.0373892 -0.0247928 0)
(-0.0337363 -0.0240555 0)
(-0.0301694 -0.0231205 0)
(-0.0267159 -0.0219995 0)
(-0.0234017 -0.0207072 0)
(-0.020251 -0.0192614 0)
(-0.0172861 -0.0176832 0)
(-0.0145263 -0.0159964 0)
(-0.0119885 -0.0142281 0)
(-0.00968599 -0.012408 0)
(-0.00762895 -0.010569 0)
(-0.0058238 -0.00874666 0)
(-0.00427319 -0.00697922 0)
(-0.002976 -0.00530788 0)
(-0.00192739 -0.00377657 0)
(-0.00111845 -0.00243212 0)
(-0.000535964 -0.00132408 0)
(-0.000169719 -0.000504676 0)
(-2.00082e-05 -3.13582e-05 0)
(-6.25782e-05 0.000973374 0)
(-0.000426138 0.00307285 0)
(-0.00122136 0.00524961 0)
(-0.00237343 0.00744413 0)
(-0.00384076 0.00960957 0)
(-0.00559922 0.0117078 0)
(-0.00762379 0.0137088 0)
(-0.00988953 0.0155893 0)
(-0.0123727 0.0173326 0)
(-0.0150504 0.0189269 0)
(-0.0179009 0.0203648 0)
(-0.0209029 0.0216423 0)
(-0.024036 0.0227579 0)
(-0.0272803 0.0237125 0)
(-0.0306167 0.0245081 0)
(-0.0340265 0.0251478 0)
(-0.0374917 0.0256351 0)
(-0.0409946 0.0259739 0)
(-0.0445181 0.0261678 0)
(-0.0480452 0.0262205 0)
(-0.0515595 0.0261352 0)
(-0.0550446 0.0259147 0)
(-0.0584845 0.0255612 0)
(-0.0618633 0.025077 0)
(-0.0651652 0.0244636 0)
(-0.0683746 0.0237224 0)
(-0.071476 0.022855 0)
(-0.0744541 0.0218626 0)
(-0.0772936 0.0207467 0)
(-0.0799796 0.0195093 0)
(-0.0824974 0.0181525 0)
(-0.0848324 0.0166793 0)
(-0.0869706 0.0150933 0)
(-0.0888985 0.0133991 0)
(-0.090603 0.011602 0)
(-0.0920719 0.00970874 0)
(-0.0932936 0.00772692 0)
(-0.0942576 0.00566549 0)
(-0.0949543 0.00353467 0)
(-0.0953755 0.00134591 0)
(-0.0955143 -0.000888044 0)
(-0.0953651 -0.00315324 0)
(-0.094924 -0.00543454 0)
(-0.0941891 -0.00771573 0)
(-0.09316 -0.00997964 0)
(-0.0918386 -0.0122083 0)
(-0.0902287 -0.0143829 0)