/*--------------------------------*- C++ -*----------------------------------*\
| =========                 |                                                 |
| \\      /  F ield         | OpenFOAM: The Open Source CFD Toolbox           |
|  \\    /   O peration     | Version:  2506                                  |
|   \\  /    A nd           | Website:  www.openfoam.com                      |
|    \\/     M anipulation  |                                                 |
\*---------------------------------------------------------------------------*/
FoamFile
{
    version     2.0;
    format      ascii;
    arch        "LSB;label=32;scalar=64";
    class       volScalarField;
    location    "0.475";
    object      p;
}
// * * * * * * * * * * * * * * * * * * * * * * * * * * * * * * * * * * * * * //

dimensions      [0 2 -2 0 0 0 0];

internalField   nonuniform List<scalar> 
6400
(
8.79879e-06
-0.000108188
-0.00112727
-0.00145955
-0.0035719
-0.00411525
-0.00695848
-0.00760494
-0.0106868
-0.0113372
-0.0142588
-0.0148407
-0.0173105
-0.0177722
-0.0195832
-0.019889
-0.0209022
-0.0210294
-0.0211606
-0.021097
-0.0203062
-0.0200476
-0.0183308
-0.0178799
-0.0152623
-0.0146274
-0.0111584
-0.0103521
-0.00610151
-0.00514048
-0.000194855
0.000901219
0.00644093
0.00764961
0.0136706
0.0149672
0.0213467
0.0227047
0.0293121
0.0307037
0.0374026
0.0387988
0.0454491
0.0468204
0.0532806
0.0545976
0.0607278
0.0619616
0.067626
0.0687489
0.0738196
0.0748059
0.0791665
0.0799932
0.0835426
0.0841904
0.0868477
0.0873019
0.0890109
0.0892626
0.089997
0.0900439
0.0898133
0.0896612
0.0885171
0.0881814
0.0862249
0.0857323
0.0831225
0.0825131
0.0794777
0.0788075
0.0756552
0.0749996
0.0721387
0.0715975
0.0695153
0.0691928
0.0682194
0.0681095
0.000126281
9.24912e-06
-0.00103826
-0.00134455
-0.00346505
-0.0039659
-0.00680977
-0.00740567
-0.0104845
-0.011084
-0.0140015
-0.0145379
-0.017003
-0.0174286
-0.019234
-0.0195159
-0.0205216
-0.0206389
-0.0207598
-0.0207011
-0.0198965
-0.0196581
-0.0179233
-0.0175077
-0.0148675
-0.0142823
-0.0107861
-0.0100429
-0.00576068
-0.00487481
0.000106622
0.00111697
0.00669618
0.00781032
0.0138738
0.015069
0.0214934
0.0227452
0.0293989
0.0306817
0.0374274
0.0387144
0.0454111
0.0466752
0.0531806
0.0543946
0.0605678
0.061705
0.0674095
0.0684445
0.0735516
0.0744608
0.0788535
0.0796155
0.0831925
0.0837897
0.0864698
0.0868885
0.0886157
0.0888477
0.089596
0.0896392
0.0894188
0.0892786
0.0881418
0.0878323
0.0858811
0.085427
0.0828215
0.0822597
0.0792279
0.0786101
0.0754604
0.074856
0.071994
0.0714951
0.069405
0.0691077
0.0681096
0.0679997
0.00115007
0.00106096
9.98444e-06
-0.000226334
-0.00218829
-0.00253979
-0.0050626
-0.00547141
-0.00816869
-0.00857872
-0.0111231
-0.0114893
-0.0136282
-0.013916
-0.0154625
-0.0156467
-0.0164699
-0.0165335
-0.0165507
-0.0164835
-0.0156518
-0.0154496
-0.0137601
-0.0134235
-0.0108952
-0.0104291
-0.00710469
-0.00651717
-0.00245943
-0.00176181
0.00294978
0.00374378
0.0090154
0.00988997
0.0156158
0.0165534
0.0226179
0.0235995
0.0298792
0.0308847
0.0372505
0.0382592
0.0445785
0.0455691
0.0517081
0.0526596
0.0584863
0.0593779
0.0647648
0.0655771
0.0704046
0.0711195
0.0752794
0.075881
0.0792807
0.0797558
0.0823223
0.0826615
0.084346
0.0845439
0.0853262
0.0853825
0.0852766
0.0851967
0.0842558
0.0840518
0.0823737
0.0820654
0.0797988
0.0794142
0.0767646
0.0763408
0.0735763
0.0731604
0.0706181
0.0702673
0.0683357
0.0681073
0.0671098
0.0670253
0.00148429
0.00136904
0.000245627
9.30821e-06
-0.00191917
-0.00227067
-0.00471619
-0.005125
-0.007731
-0.00814103
-0.0105958
-0.010962
-0.0130223
-0.0133101
-0.0147945
-0.0149788
-0.0157594
-0.015823
-0.0158182
-0.015751
-0.014918
-0.0147158
-0.0130447
-0.0127081
-0.0102167
-0.00975053
-0.00648003
-0.00589251
-0.00190373
-0.0012061
0.00342342
0.00421743
0.009396
0.0102706
0.0158946
0.0168322
0.0227884
0.02377
0.0299373
0.0309428
0.0371946
0.0382032
0.0444093
0.0453999
0.0514291
0.0523805
0.0581033
0.058995
0.0642865
0.0650987
0.0698418
0.0705567
0.0746457
0.0752473
0.0785919
0.079067
0.0815962
0.0819355
0.0836022
0.0838001
0.0845856
0.0846418
0.0845606
0.0844807
0.0835855
0.0833816
0.0817689
0.0814606
0.0792757
0.0788911
0.0763333
0.0759096
0.0732373
0.0728214
0.070356
0.0700052
0.0681068
0.0678784
0.0668124
0.0667027
0.00361519
0.00350596
0.00220262
0.00192695
-2.40281e-05
-0.000357394
-0.00259554
-0.00295539
-0.00525634
-0.0056071
-0.00773719
-0.00804464
-0.0098064
-0.0100431
-0.011285
-0.0114304
-0.0120422
-0.0120817
-0.0119907
-0.0119153
-0.0110815
-0.0108872
-0.00929953
-0.00898637
-0.00665852
-0.00623034
-0.00319729
-0.00266109
0.00102383
0.00165837
0.00592616
0.00664699
0.0114153
0.0122084
0.0173835
0.0182332
0.0237122
0.0246016
0.0302739
0.031185
0.0369351
0.037849
0.0435579
0.0444557
0.0500034
0.0508661
0.0561344
0.0569436
0.0618188
0.0625568
0.0669327
0.0675836
0.0713647
0.0719144
0.0750197
0.0754569
0.0778237
0.07814
0.0797275
0.0799187
0.0807121
0.0807781
0.0807925
0.0807385
0.0800229
0.0798597
0.0785001
0.0782446
0.0763671
0.0760426
0.0738153
0.0734515
0.0710862
0.0707194
0.0684612
0.0681289
0.0662129
0.0659476
0.0647131
0.0646103
0.00416742
0.004015
0.00255551
0.00227984
0.000299391
-3.39745e-05
-0.00225671
-0.00261656
-0.00488368
-0.00523445
-0.00732379
-0.00763124
-0.00935298
-0.0095897
-0.0107979
-0.0109433
-0.0115314
-0.0115709
-0.0114682
-0.0113928
-0.0105602
-0.0103659
-0.00879247
-0.0084793
-0.00617834
-0.00575015
-0.00275581
-0.0022196
0.00141592
0.00205046
0.00625951
0.00698034
0.011682
0.0124751
0.0175774
0.0184272
0.0238287
0.0247181
0.0303104
0.0312214
0.0368904
0.0378044
0.043433
0.0443309
0.049801
0.0506638
0.0558591
0.0566683
0.0614768
0.0622149
0.066532
0.0671829
0.0709149
0.0714646
0.0745318
0.0749689
0.0773096
0.0776259
0.0792002
0.0793913
0.0801847
0.0802507
0.080278
0.0802241
0.0795333
0.0793701
0.0780451
0.0777896
0.0759527
0.0756281
0.0734417
0.0730779
0.0707462
0.0703794
0.0681363
0.067804
0.0658597
0.0655944
0.0642086
0.064063
0.00708768
0.00693212
0.00510838
0.00474408
0.00248164
0.0021161
-0.00015717
-0.000516746
-0.00272
-0.00305546
-0.00502869
-0.00531409
-0.00690483
-0.00711896
-0.00820963
-0.00833651
-0.00884025
-0.00886843
-0.00872655
-0.00864886
-0.00782908
-0.00764232
-0.00613624
-0.00584079
-0.00366119
-0.00326059
-0.000438915
6.05178e-05
0.00347649
0.00406598
0.00801424
0.00868292
0.0130891
0.0138243
0.0186036
0.019391
0.0244499
0.025274
0.0305118
0.0313561
0.0366671
0.0375144
0.0427898
0.0436227
0.0487525
0.0495534
0.0544293
0.0551813
0.0596988
0.0603858
0.0644475
0.0650545
0.0685731
0.0690873
0.0719885
0.0723994
0.0746255
0.0749254
0.0764389
0.0766235
0.0774098
0.077479
0.0775498
0.0775077
0.0769038
0.0767592
0.0755521
0.075319
0.0736114
0.0733082
0.0712347
0.0708854
0.0686139
0.0682468
0.0659518
0.0655878
0.0633689
0.0630179
0.0612831
0.0611363
0.00776244
0.0075541
0.00552732
0.00516302
0.00283386
0.00246831
0.00017276
-0.000186816
-0.00239208
-0.00272754
-0.00469124
-0.00497664
-0.00655263
-0.00676675
-0.00784279
-0.00796967
-0.00846267
-0.00849085
-0.00834459
-0.0082669
-0.00745054
-0.00726378
-0.00576964
-0.00547419
-0.00331518
-0.00291458
-0.000121827
0.000377606
0.00375697
0.00434647
0.00825133
0.00892001
0.0132771
0.0140123
0.018738
0.0195254
0.0245275
0.0253516
0.0305308
0.0313751
0.036627
0.0374743
0.0426916
0.0435244
0.0485984
0.0493994
0.054223
0.054975
0.0594451
0.060132
0.0641523
0.0647594
0.0682433
0.0687576
0.0716319
0.0720427
0.0742502
0.0745501
0.0760532
0.0762378
0.0770218
0.077091
0.0771669
0.0771248
0.0765316
0.0763871
0.0751941
0.0749609
0.073267
0.0729639
0.0708985
0.0705493
0.0682744
0.0679073
0.0655892
0.0652252
0.0629406
0.0625897
0.0606553
0.0604552
0.0110388
0.0108214
0.008336
0.007861
0.00511436
0.00469199
0.00220294
0.00181879
-0.000460846
-0.00080409
-0.00277456
-0.00305773
-0.00460406
-0.00481139
-0.00584736
-0.00596736
-0.0064295
-0.00645387
-0.00629931
-0.00622298
-0.00542934
-0.00525037
-0.00381462
-0.00353398
-0.00147068
-0.00109201
0.00156839
0.00203907
0.00525191
0.00580645
0.00951442
0.0101428
0.0142775
0.0149679
0.0194511
0.0201905
0.0249361
0.0257101
0.030625
0.0314184
0.0364047
0.0372015
0.0421582
0.042942
0.0477666
0.0485213
0.0531126
0.0538221
0.0580823
0.0587315
0.062569
0.0631438
0.066476
0.0669643
0.0697204
0.070112
0.0722365
0.0725238
0.0739788
0.0741574
0.0749257
0.0749945
0.0750819
0.0750437
0.0744805
0.0743423
0.0731845
0.0729568
0.0712847
0.070982
0.0689004
0.0685415
0.0661832
0.06579
0.0632732
0.0628521
0.0601546
0.0596952
0.0573164
0.0571099
0.0117495
0.0114765
0.00877132
0.00829632
0.0054645
0.00504212
0.00250999
0.00212584
-0.000176507
-0.000519751
-0.00249943
-0.0027826
-0.00432985
-0.00453718
-0.00557062
-0.00569062
-0.00615044
-0.00617482
-0.00602068
-0.00594435
-0.00515558
-0.00497661
-0.00355116
-0.00327053
-0.00122341
-0.000844741
0.00179359
0.00226427
0.00544949
0.00600403
0.00967943
0.0103078
0.0144057
0.0150962
0.0195394
0.0202788
0.0249822
0.0257562
0.0306278
0.0314211
0.0363641
0.0371608
0.0420751
0.042859
0.0476432
0.0483979
0.0529518
0.0536614
0.057888
0.0585372
0.0623456
0.0629205
0.0662287
0.0667169
0.0694546
0.0698461
0.0719576
0.0722449
0.0736921
0.0738706
0.0746358
0.0747046
0.0747922
0.074754
0.0741929
0.0740546
0.0728981
0.0726704
0.0709953
0.0706927
0.0685994
0.0682405
0.0658572
0.065464
0.0629024
0.0624813
0.0596988
0.0592394
0.0566419
0.0563782
0.0150351
0.0147489
0.0115465
0.0109514
0.00763399
0.00714018
0.00432924
0.00390387
0.00143844
0.00107105
-0.000997849
-0.00129338
-0.00288127
-0.0030938
-0.00414212
-0.00426416
-0.00473137
-0.00475766
-0.00461672
-0.00454433
-0.00378369
-0.0036121
-0.00223548
-0.00196652
8.0843e-06
0.000370434
0.0029118
0.00336155
0.00642635
0.00695565
0.0104895
0.0110889
0.0150277
0.0156861
0.0199566
0.0206618
0.0251833
0.0259218
0.0306073
0.0313649
0.0361223
0.0368839
0.041618
0.0423681
0.0469821
0.0477053
0.0521029
0.052784
0.0568717
0.057496
0.0611855
0.0617396
0.0649507
0.0654224
0.0680855
0.0684648
0.0705236
0.0708026
0.0722169
0.0723905
0.0731381
0.0732044
0.0732835
0.0732437
0.0726736
0.0725323
0.0713535
0.0711187
0.0693909
0.0690732
0.0668761
0.0664901
0.0639291
0.0634921
0.0606412
0.0601474
0.0568787
0.0563005
0.0532174
0.0529438
0.0157194
0.0153796
0.0119576
0.0113624
0.00795022
0.00745641
0.00458896
0.00416359
0.00166109
0.0012937
-0.000797969
-0.0010935
-0.002694
-0.00290652
-0.00396147
-0.00408351
-0.00455472
-0.00458101
-0.00444388
-0.00437149
-0.00361624
-0.00344466
-0.00207617
-0.00180721
0.000155859
0.000518209
0.0030444
0.00349415
0.00654022
0.00706952
0.0105815
0.0111808
0.0150949
0.0157534
0.0199972
0.0207024
0.0251959
0.0259345
0.0305915
0.031349
0.0360784
0.0368399
0.041547
0.0422971
0.0468858
0.047609
0.0519838
0.0526649
0.0567326
0.0573569
0.0610297
0.0615837
0.0647815
0.0652533
0.0679064
0.0682857
0.0703376
0.0706166
0.0720264
0.0722001
0.0729449
0.0730112
0.0730876
0.0730478
0.0724734
0.0723322
0.0711452
0.0709103
0.0691673
0.0688496
0.0666263
0.0662403
0.0636388
0.0632018
0.0602915
0.0597978
0.0564334
0.0558551
0.0525504
0.0522201
0.0187585
0.0184009
0.0144688
0.0137507
0.00981987
0.00924614
0.00604627
0.00556854
0.00284243
0.00243935
0.000199839
-0.000118704
-0.00181101
-0.00203758
-0.00314765
-0.00327827
-0.00378422
-0.0038164
-0.00370617
-0.00363905
-0.00291204
-0.0027466
-0.00141398
-0.00115301
0.00076267
0.00111463
0.0035801
0.00401688
0.0069887
0.00750255
0.0109278
0.0115096
0.0153267
0.0159658
0.0201051
0.0207898
0.0251746
0.0258922
0.0304396
0.0311764
0.0357987
0.0365402
0.0411461
0.0418776
0.0463738
0.0470803
0.0513736
0.0520403
0.0560393
0.0566518
0.0602697
0.0608145
0.063971
0.064436
0.0670602
0.0674349
0.069468
0.069744
0.0711411
0.0713124
0.0720452
0.0721085
0.0721662
0.0721212
0.0715119
0.0713611
0.0701107
0.0698595
0.0680097
0.0676656
0.0652752
0.0648496
0.0620043
0.0615113
0.0582518
0.0576757
0.0537855
0.0530842
0.0492777
0.0489339
0.0193704
0.0189649
0.0148227
0.0141046
0.0100744
0.00950071
0.00623604
0.0057583
0.00298561
0.00258253
0.00031091
-7.63258e-06
-0.00172074
-0.0019473
-0.00307038
-0.003201
-0.00371515
-0.00374733
-0.00364275
-0.00357564
-0.00285347
-0.00268802
-0.00136068
-0.00109971
0.000809492
0.00116146
0.00361881
0.00405559
0.00701755
0.00753139
0.0109452
0.0115269
0.0153312
0.0159703
0.0200959
0.0207806
0.0251513
0.0258689
0.0304023
0.0311391
0.0357481
0.0364896
0.0410834
0.0418149
0.0463006
0.0470072
0.0512918
0.0519585
0.055951
0.0565635
0.060177
0.0607218
0.0638758
0.0643409
0.0669642
0.0673389
0.069372
0.0696479
0.0710452
0.0712164
0.0719482
0.0720115
0.0720657
0.0720207
0.0714033
0.0712526
0.0699876
0.0697364
0.0678626
0.0675185
0.0650918
0.0646662
0.0617697
0.0612767
0.0579484
0.0573723
0.0533805
0.0526792
0.0486568
0.0482603
0.0219686
0.0215391
0.0168843
0.0160436
0.0114822
0.0108243
0.00719634
0.00665957
0.00362524
0.00317916
0.00072153
0.000373094
-0.00146548
-0.00171181
-0.00291592
-0.00305916
-0.00362419
-0.00366433
-0.00359197
-0.00353008
-0.00283029
-0.00266882
-0.00136051
-0.0011033
0.000785827
0.00113358
0.00356725
0.00399901
0.00693258
0.00744053
0.0108214
0.0113964
0.0151642
0.0157961
0.0198832
0.0205606
0.0248929
0.0256034
0.030101
0.0308312
0.0354089
0.036145
0.0407138
0.0414413
0.04591
0.0466141
0.0508904
0.0515564
0.0555496
0.056163
0.0597853
0.0603326
0.063502
0.0639704
0.0666129
0.0669913
0.0690435
0.0693226
0.0707335
0.0709062
0.0716398
0.0717014
0.0717373
0.0716859
0.0710208
0.070857
0.0695035
0.0692301
0.0672143
0.0668363
0.0642005
0.063727
0.060543
0.059986
0.0562708
0.0556066
0.0510684
0.050243
0.0457116
0.0452965
0.0224728
0.0220038
0.0171537
0.016313
0.0116509
0.010993
0.00729562
0.00675886
0.00367223
0.00322615
0.000730646
0.00038221
-0.00148222
-0.00172855
-0.00294943
-0.00309267
-0.003668
-0.00370813
-0.00364166
-0.00357977
-0.00288312
-0.00272165
-0.00141497
-0.00115775
0.000730398
0.00107815
0.00351095
0.00394271
0.00687525
0.0073832
0.0107628
0.0113378
0.0151042
0.0157361
0.0198221
0.0204994
0.024831
0.0255415
0.030039
0.0307693
0.035348
0.0360841
0.0406553
0.0413828
0.0458553
0.0465594
0.0508411
0.0515071
0.055507
0.0561204
0.0597507
0.0602979
0.063476
0.0639444
0.0665956
0.066974
0.069034
0.0693131
0.0707298
0.0709026
0.0716385
0.0717002
0.0717336
0.0716822
0.0710079
0.070844
0.0694724
0.0691991
0.0671541
0.0667761
0.0640975
0.0636241
0.060382
0.059825
0.056035
0.0553708
0.050728
0.0499026
0.0451653
0.0447039
0.0244767
0.0239756
0.018611
0.0176495
0.0124541
0.0117102
0.00763383
0.00703442
0.00366461
0.00317136
0.000467714
8.54443e-05
-0.00192355
-0.00219275
-0.00350802
-0.00366571
-0.00429772
-0.00434609
-0.00430899
-0.0042509
-0.00356465
-0.00340397
-0.00209517
-0.0018368
6.13453e-05
0.000411467
0.00285903
0.00329391
0.00624424
0.00675581
0.0101555
0.0107347
0.0145237
0.0151603
0.0192721
0.0199548
0.0243166
0.0250334
0.0295665
0.0303043
0.0349252
0.0356701
0.0402907
0.0410284
0.0455578
0.0462735
0.0506193
0.0512981
0.055368
0.0559952
0.0596993
0.0602607
0.0635132
0.0639955
0.0667177
0.0671089
0.0692309
0.0695205
0.0709841
0.0711636
0.0719236
0.0719869
0.0720131
0.0719563
0.0712339
0.0710558
0.069585
0.0692866
0.06708
0.066664
0.0637509
0.0632246
0.0596678
0.0590419
0.0548415
0.0540859
0.0488853
0.0479354
0.0426815
0.0421945
0.0248449
0.024315
0.0187727
0.0178112
0.012515
0.0117712
0.00762319
0.00702378
0.00359863
0.00310538
0.000360767
-2.15025e-05
-0.0020589
-0.0023281
-0.0036617
-0.00381939
-0.00446193
-0.0045103
-0.00447781
-0.00441972
-0.00373373
-0.00357305
-0.00226136
-0.00200299
-9.97265e-05
0.000250395
0.00270469
0.00313956
0.00609785
0.00660941
0.0100181
0.0105973
0.0143963
0.0150329
0.0191558
0.0198385
0.0242126
0.0249293
0.0294761
0.0302139
0.0348498
0.0355947
0.0402319
0.0409696
0.0455171
0.0462328
0.0505979
0.0512767
0.0553668
0.0559941
0.0597187
0.0602801
0.063553
0.0640353
0.0667765
0.0671677
0.0693064
0.069596
0.0710725
0.071252
0.0720196
0.0720829
0.0721097
0.072053
0.0713223
0.0711443
0.0696546
0.0693561
0.0671179
0.0667018
0.0637423
0.063216
0.0595971
0.0589712
0.0546923
0.0539367
0.0486293
0.0476794
0.0422316
0.0417065
0.0261268
0.0255545
0.0194922
0.0184115
0.0125844
0.0117541
0.00722041
0.0065567
0.0028381
0.00229571
-0.000667301
-0.00108511
-0.0032747
-0.00356777
-0.00499866
-0.00517076
-0.00586667
-0.00592194
-0.00590838
-0.00585135
-0.00515769
-0.00499359
-0.00365395
-0.00338874
-0.00144204
-0.00108244
0.00142731
0.00187376
0.0048973
0.00542219
0.00890466
0.00949871
0.0133795
0.0140324
0.018245
0.0189457
0.0234176
0.0241539
0.028807
0.029566
0.0343169
0.0350847
0.0398452
0.0406073
0.0452857
0.0460272
0.0505293
0.0512348
0.0554656
0.0561199
0.0599855
0.0605737
0.0639834
0.0644912
0.0673598
0.0677739
0.0700239
0.0703326
0.0718967
0.07209
0.0729131
0.0729831
0.0730241
0.0729651
0.0721977
0.0720068
0.0704195
0.0700955
0.0676892
0.0672331
0.0640265
0.0634446
0.0594951
0.0587974
0.0540932
0.0532437
0.0473696
0.0462944
0.0403169
0.0397572
0.0263351
0.0257464
0.0195256
0.018445
0.0125175
0.0116872
0.0070811
0.00641739
0.00264223
0.00209984
-0.000905254
-0.00132306
-0.00354164
-0.0038347
-0.00528363
-0.00545573
-0.00616076
-0.00621603
-0.00620439
-0.00614736
-0.00544992
-0.00528581
-0.00393787
-0.00367265
-0.00171406
-0.00135446
0.0011701
0.00161655
0.00465734
0.00518223
0.0086841
0.00927815
0.0131803
0.0138333
0.0180692
0.0187699
0.023267
0.0240034
0.0286837
0.0294426
0.0342226
0.0349904
0.0397817
0.0405439
0.0452546
0.0459961
0.0505317
0.0512372
0.0555021
0.0561564
0.0600559
0.0606441
0.0640866
0.0645943
0.0674934
0.0679075
0.0701843
0.070493
0.0720787
0.072272
0.0731097
0.0731796
0.0732264
0.0731674
0.0723951
0.0722041
0.0705994
0.0702754
0.0678372
0.0673811
0.0641265
0.0635446
0.0595308
0.0588331
0.0540478
0.0531983
0.0472156
0.0461405
0.0399813
0.0393931
0.026782
0.0261383
0.0193862
0.0181876
0.011732
0.0108154
0.00582213
0.00509373
0.00102254
0.000430647
-0.00279426
-0.00324759
-0.00561682
-0.00593303
-0.00747332
-0.00765816
-0.00840516
-0.00846456
-0.0084543
-0.00839435
-0.00766517
-0.00749238
-0.00608579
-0.00580721
-0.00376797
-0.00339114
-0.000767613
-0.000300686
0.00285475
0.00340297
0.00703343
0.00765336
0.011697
0.0123783
0.0167678
0.0174992
0.0221619
0.0229311
0.0277884
0.0285824
0.0335503
0.0343552
0.0393443
0.0401452
0.045062
0.0458436
0.050591
0.0513374
0.0558164
0.0565117
0.0606233
0.0612514
0.0648982
0.0654438
0.0685328
0.0689812
0.0714257
0.0717636
0.0734861
0.0737017
0.0746358
0.0747194
0.0748122
0.0747563
0.0739696
0.0737691
0.07208
0.0717321
0.0691302
0.0686344
0.0651299
0.0644913
0.0601391
0.0593678
0.0541467
0.0532015
0.0466415
0.0454394
0.0387295
0.0380955
0.0268084
0.0261626
0.0192721
0.0180735
0.011518
0.0106014
0.00553572
0.00480732
0.0006796
8.77065e-05
-0.00317888
-0.00363222
-0.0060294
-0.00634562
-0.00790207
-0.00808691
-0.00884012
-0.00889953
-0.00888718
-0.00882723
-0.00808907
-0.00791629
-0.00649501
-0.00621643
-0.00415775
-0.00378092
-0.00113393
-0.000667001
0.0025154
0.00306362
0.00672417
0.00734411
0.0114207
0.012102
0.0165273
0.0172586
0.0219597
0.0227289
0.0276271
0.0284211
0.0334321
0.034237
0.0392714
0.0400723
0.0450361
0.0458177
0.0506132
0.0513596
0.0558872
0.0565824
0.060742
0.0613701
0.0650633
0.0656088
0.0687409
0.0691894
0.0716723
0.0720102
0.0737645
0.0739801
0.0749376
0.0750212
0.0751269
0.075071
0.0742848
0.0740843
0.0723811
0.0720333
0.0694013
0.0689054
0.0653533
0.0647147
0.0602971
0.0595258
0.0542219
0.0532767
0.0466059
0.0454038
0.0385244
0.0378731
0.0263138
0.0255982
0.0181583
0.0168421
0.00976006
0.00875745
0.00330605
0.00251337
-0.00190755
-0.00254815
-0.00602912
-0.00651658
-0.00905534
-0.00939253
-0.0110267
-0.0112212
-0.0119977
-0.0120571
-0.0120218
-0.0119537
-0.0111538
-0.0109661
-0.00945041
-0.00915107
-0.00697039
-0.00656789
-0.00377517
-0.0032783
7.06209e-05
0.000652571
0.00449834
0.00515547
0.00943455
0.0101562
0.0148002
0.015575
0.0205101
0.0213256
0.0264723
0.0273153
0.0325883
0.0334446
0.0387527
0.0396071
0.0448539
0.0456905
0.0507753
0.0515775
0.0563964
0.0571472
0.0615946
0.062277
0.0662476
0.0668448
0.0702362
0.0707319
0.073447
0.0738259
0.0757754
0.0760239
0.0771287
0.0772349
0.0774292
0.0773836
0.0766164
0.0764119
0.0746482
0.0742801
0.0714989
0.0709651
0.0671687
0.0664738
0.0617158
0.0608699
0.0551222
0.0540791
0.0468175
0.0454853
0.0380249
0.0373143
0.0261369
0.0254352
0.0178779
0.0165617
0.00937996
0.00837735
0.00285395
0.00206126
-0.00241525
-0.00305586
-0.00657693
-0.00706438
-0.00962873
-0.00996592
-0.011613
-0.0118075
-0.0125859
-0.0126453
-0.0126027
-0.0125346
-0.0117194
-0.0115316
-0.0099939
-0.00969456
-0.00748609
-0.00708359
-0.00425808
-0.0037612
-0.00037509
0.00020686
0.00409381
0.00475094
0.00907489
0.00979657
0.0144889
0.0152637
0.0202504
0.0210659
0.0262673
0.0271103
0.0324408
0.0332971
0.0386652
0.0395196
0.0448285
0.045665
0.0508132
0.0516154
0.0564981
0.057249
0.0617594
0.0624418
0.0664734
0.0670706
0.0705193
0.0710149
0.0737817
0.0741607
0.0761542
0.0764027
0.0775417
0.0776479
0.0778644
0.0778188
0.0770595
0.076855
0.0750829
0.0747148
0.0719072
0.0713734
0.0675312
0.0668362
0.062013
0.0611671
0.0553352
0.0542921
0.0469165
0.0455843
0.0379665
0.0372509
0.0245945
0.0238058
0.0156741
0.0142399
0.00653102
0.00544265
-0.000463338
-0.00131934
-0.00608223
-0.00676982
-0.0104943
-0.0110133
-0.0137036
-0.0140583
-0.0157625
-0.0159622
-0.0167382
-0.0167922
-0.0166958
-0.0166132
-0.0157002
-0.0154901
-0.013817
-0.0134886
-0.0111123
-0.0106749
-0.00765322
-0.00711631
-0.00350889
-0.00288229
0.0012488
0.00195479
0.00654398
0.00731846
0.0122959
0.0131271
0.0184177
0.0192932
0.024816
0.0257223
0.0313903
0.0323127
0.0380324
0.0389553
0.0446271
0.0455341
0.0510527
0.0519262
0.0571818
0.0580039
0.0628834
0.0636356
0.0680248
0.0686886
0.0724743
0.0730316
0.0761044
0.076538
0.0787951
0.079089
0.0804372
0.0805772
0.0809361
0.0809102
0.0802147
0.0800138
0.0782157
0.0778331
0.0749002
0.074332
0.0702587
0.0695089
0.0643482
0.0634275
0.0571449
0.0560015
0.0480173
0.0465505
0.0383121
0.0375215
0.0241928
0.0234355
0.0152085
0.0137743
0.00596528
0.00487691
-0.00110036
-0.00195637
-0.00677322
-0.00746082
-0.0112228
-0.0117418
-0.0144541
-0.0148088
-0.0165213
-0.016721
-0.0174933
-0.0175473
-0.017437
-0.0173544
-0.0164186
-0.0162085
-0.014505
-0.0141765
-0.0117632
-0.0113258
-0.00826126
-0.00772434
-0.0040689
-0.0034423
0.000741537
0.00144753
0.00609385
0.00686832
0.011907
0.0127383
0.0180939
0.0189695
0.0245611
0.0254674
0.0312076
0.03213
0.0379249
0.0388479
0.0445973
0.0455043
0.0511022
0.0519758
0.0573113
0.0581334
0.0630922
0.0638444
0.0683107
0.0689745
0.0728332
0.0733906
0.0765302
0.0769638
0.0792791
0.079573
0.0809685
0.0811085
0.0815011
0.0814752
0.0807974
0.0805964
0.0787978
0.0784151
0.0754613
0.0748932
0.0707772
0.0700275
0.0648025
0.0638817
0.0575137
0.0563704
0.0482686
0.0468017
0.0384177
0.0376361
0.021492
0.0206284
0.0117951
0.0102416
0.00190243
0.000728431
-0.00562741
-0.00654535
-0.0116385
-0.0123706
-0.01632
-0.016867
-0.0196834
-0.0200509
-0.0217933
-0.0219924
-0.0227298
-0.0227716
-0.02257
-0.0224651
-0.0213894
-0.0211484
-0.0192629
-0.018896
-0.0162642
-0.0157817
-0.0124666
-0.0118788
-0.00794391
-0.00726118
-0.00277159
-0.00200459
0.00297196
0.00381201
0.00920396
0.0101051
0.015836
0.0167856
0.0227731
0.0237572
0.0299124
0.0309162
0.037143
0.0381503
0.0443455
0.045339
0.0513924
0.0523538
0.058149
0.0590591
0.0644747
0.0653136
0.0702251
0.0709724
0.0752546
0.0758901
0.0794195
0.0799236
0.0825823
0.0829363
0.0846149
0.084802
0.0854033
0.0854091
0.0848518
0.0846643
0.0828857
0.0824961
0.0794509
0.0788536
0.0745275
0.0737256
0.068171
0.0671754
0.0603508
0.0591047
0.050372
0.0487645
0.0397108
0.0388359
0.0208423
0.0200295
0.0111241
0.00957058
0.00113057
-4.34344e-05
-0.00646967
-0.00738761
-0.0125325
-0.0132646
-0.017248
-0.0177949
-0.0206286
-0.0209961
-0.0227409
-0.02294
-0.0236668
-0.0237086
-0.0234851
-0.0233802
-0.022273
-0.0220319
-0.0201065
-0.0197396
-0.0170604
-0.016578
-0.0132091
-0.0126213
-0.00862689
-0.00794417
-0.00338971
-0.00262271
0.00242366
0.00326372
0.00873021
0.00963139
0.0154413
0.0163909
0.0224617
0.0234458
0.0296884
0.0306921
0.0370098
0.0380171
0.0443062
0.0452997
0.0514491
0.0524106
0.0583029
0.059213
0.0647255
0.0655644
0.0705707
0.071318
0.0756907
0.0763262
0.0799398
0.0804438
0.0831773
0.0835314
0.0852727
0.0854598
0.0861089
0.0861146
0.0855873
0.0853998
0.0836306
0.083241
0.0801825
0.0795852
0.0752212
0.0744193
0.0688023
0.0678068
0.0608959
0.0596498
0.0507948
0.0491874
0.0400001
0.0391497
0.016865
0.0159242
0.00637354
0.00469856
-0.00427703
-0.00553667
-0.0123367
-0.0133148
-0.0187227
-0.019496
-0.023646
-0.0242162
-0.0271262
-0.0275005
-0.0292409
-0.0294323
-0.0300841
-0.0301057
-0.0297461
-0.02961
-0.0283137
-0.0280321
-0.0258718
-0.0254562
-0.0225024
-0.0219639
-0.0182852
-0.017635
-0.0132991
-0.0125481
-0.00762321
-0.00678253
-0.00133849
-0.00041965
0.00547041
0.00645528
0.0127137
0.0137516
0.0202947
0.0213716
0.0281088
0.0292094
0.0360421
0.0371498
0.0439711
0.045068
0.0517625
0.0528293
0.0592737
0.0602898
0.0663538
0.0672976
0.0728454
0.0736946
0.0785874
0.0793194
0.0834182
0.0840107
0.0871799
0.0876114
0.089723
0.0899735
0.0909112
0.0909629
0.0906267
0.090465
0.0887744
0.0883879
0.0852827
0.0846633
0.0801185
0.0792686
0.0733348
0.0722654
0.064893
0.0635412
0.0540292
0.0522738
0.0423581
0.0413935
0.0159424
0.0150738
0.00547566
0.00380068
-0.00527702
-0.00653666
-0.013406
-0.0143841
-0.0198408
-0.0206141
-0.0247936
-0.0253638
-0.028285
-0.0286593
-0.0303947
-0.0305862
-0.031219
-0.0312405
-0.0308497
-0.0307136
-0.0293756
-0.029094
-0.026883
-0.0264673
-0.0234549
-0.0229164
-0.0191721
-0.0185219
-0.0141142
-0.0133632
-0.0083607
-0.00752002
-0.00199296
-0.00107412
0.00490417
0.00588904
0.0122407
0.0132786
0.0199199
0.0209968
0.0278367
0.0289374
0.0358771
0.0369849
0.0439169
0.0450138
0.051822
0.0528888
0.0594487
0.0604648
0.0666445
0.0675884
0.0732503
0.0740995
0.0791025
0.0798345
0.0840369
0.0846294
0.0878926
0.088324
0.0905166
0.0907671
0.0917694
0.0918212
0.0915298
0.0913682
0.0896996
0.0893131
0.0862043
0.085585
0.0810089
0.080159
0.074166
0.0730966
0.0656373
0.0642855
0.054646
0.0528905
0.042854
0.0419315
0.0105597
0.00953862
-0.000750667
-0.00255005
-0.0121712
-0.0135166
-0.0207539
-0.02179
-0.0274931
-0.0283035
-0.0326232
-0.0332108
-0.0361735
-0.0365472
-0.0382362
-0.0384114
-0.0389211
-0.0389127
-0.0383328
-0.0381551
-0.0365714
-0.0362379
-0.0337324
-0.0332561
-0.0299069
-0.0293002
-0.0251818
-0.0244567
-0.0196414
-0.0188092
-0.0133681
-0.0124405
-0.00644568
-0.00543437
0.00103993
0.00212262
0.00899784
0.0101388
0.0173305
0.0185155
0.0259318
0.0271454
0.0346856
0.0359107
0.0434646
0.0446826
0.0521299
0.0533206
0.0605309
0.0616722
0.0685056
0.0695743
0.075883
0.0768547
0.082485
0.0833343
0.0881297
0.0888313
0.0926365
0.0931655
0.0958308
0.0961636
0.0975501
0.0976654
0.097651
0.0975305
0.0960136
0.0956426
0.0925447
0.0919126
0.0871948
0.0863025
0.0800119
0.0788703
0.070947
0.0694865
0.0591601
0.0572481
0.0464149
0.0453542
0.00933678
0.00841136
-0.00189905
-0.00369843
-0.0134233
-0.0147687
-0.022074
-0.0231101
-0.0288585
-0.0296689
-0.0340124
-0.0346
-0.0375664
-0.0379401
-0.0396152
-0.0397903
-0.0402709
-0.0402625
-0.0396404
-0.0394626
-0.0378254
-0.037492
-0.0349234
-0.0344472
-0.0310267
-0.0304201
-0.0262232
-0.025498
-0.0205977
-0.0197656
-0.0142335
-0.0133059
-0.0072143
-0.00620299
0.000373636
0.00145633
0.00843939
0.00958035
0.0168853
0.0180704
0.0256053
0.0268188
0.0344828
0.0357079
0.0433901
0.0446081
0.0521877
0.0533783
0.0607235
0.0618648
0.0688344
0.0699031
0.0763471
0.0773187
0.083081
0.0839303
0.0888514
0.0895529
0.0934741
0.094003
0.0967707
0.0971034
0.0985747
0.0986899
0.0987386
0.0986181
0.097139
0.096768
0.0936791
0.093047
0.0883066
0.0874143
0.0810689
0.0799273
0.0719172
0.0704567
0.0599969
0.0580848
0.0471447
0.046146
0.00240583
0.00130088
-0.0097541
-0.0116816
-0.02196
-0.0233914
-0.0310576
-0.0321489
-0.0381228
-0.0389651
-0.0434161
-0.0440138
-0.0469786
-0.0473427
-0.0489199
-0.0490683
-0.0493681
-0.0493182
-0.0484446
-0.0482128
-0.0462642
-0.0458661
-0.0429351
-0.0423851
-0.0385585
-0.0378703
-0.0332291
-0.0324154
-0.0270365
-0.0261095
-0.0200671
-0.0190387
-0.0124064
-0.0112884
-0.00414122
-0.00294619
0.00463722
0.00589626
0.0138314
0.0151402
0.0233348
0.0246778
0.03303
0.0343898
0.0427868
0.0441442
0.0524613
0.0537952
0.0618949
0.0631821
0.0709151
0.0721303
0.079336
0.0804525
0.0869612
0.0879509
0.0935867
0.0944207
0.0990058
0.0996555
0.103015
0.103453
0.105422
0.105621
0.106051
0.10599
0.104753
0.104413
0.101407
0.100775
0.0959439
0.0950166
0.0884012
0.0871901
0.0787167
0.0771446
0.0659655
0.0638871
0.0520718
0.0509078
0.000852111
-0.000131322
-0.0111792
-0.0131067
-0.023491
-0.0249224
-0.0326549
-0.0337462
-0.0397607
-0.040603
-0.0450707
-0.0456684
-0.0486277
-0.0489918
-0.0505441
-0.0506925
-0.050951
-0.0509011
-0.0499721
-0.0497404
-0.0477246
-0.0473265
-0.0443186
-0.0437686
-0.0398566
-0.0391685
-0.0344347
-0.033621
-0.028143
-0.027216
-0.0210684
-0.02004
-0.0132966
-0.0121787
-0.00491466
-0.00371963
0.00398649
0.00524552
0.0133093
0.0146182
0.0229475
0.0242905
0.0327834
0.0341432
0.0426866
0.0440441
0.0525125
0.0538464
0.0621016
0.0633888
0.0712797
0.072495
0.079859
0.0809755
0.0876402
0.0886299
0.0944162
0.0952502
0.0999763
0.100626
0.104113
0.10455
0.106628
0.106827
0.107342
0.107281
0.106101
0.105761
0.10278
0.102147
0.0973056
0.0963783
0.0897144
0.0885033
0.0799438
0.0783717
0.0670529
0.0649745
0.0530682
0.0519887
-0.00778638
-0.00897961
-0.0208338
-0.0228941
-0.0338442
-0.0353618
-0.043446
-0.044589
-0.0508025
-0.0516702
-0.0562042
-0.0568029
-0.0597073
-0.0600506
-0.0614423
-0.0615512
-0.0615594
-0.0614542
-0.0601997
-0.0598995
-0.0574956
-0.0570181
-0.0535701
-0.0529316
-0.0485358
-0.0477512
-0.042496
-0.0415791
-0.035546
-0.0345096
-0.0277757
-0.0266319
-0.019272
-0.0180328
-0.0101216
-0.00879942
-0.000414775
0.000977584
0.00975235
0.0112008
0.0202744
0.0217634
0.031034
0.0325462
0.0418997
0.0434155
0.0527236
0.0542211
0.0633404
0.0647952
0.0735669
0.0749519
0.0832024
0.0844884
0.092031
0.0931868
0.0998243
0.100817
0.106347
0.107143
0.111361
0.111929
0.114639
0.114948
0.115969
0.11599
0.115163
0.114874
0.112067
0.111448
0.106582
0.10563