/*--------------------------------*- C++ -*----------------------------------*\
| =========                 |                                                 |
| \\      /  F ield         | OpenFOAM: The Open Source CFD Toolbox           |
|  \\    /   O peration     | Version:  2506                                  |
|   \\  /    A nd           | Website:  www.openfoam.com                      |
|    \\/     M anipulation  |                                                 |
\*---------------------------------------------------------------------------*/
FoamFile
{
    version     2.0;
    format      ascii;
    arch        "LSB;label=32;scalar=64";
    class       volScalarField;
    location    "0.475";
    object      Uy;
}
// * * * * * * * * * * * * * * * * * * * * * * * * * * * * * * * * * * * * * //

dimensions      [0 1 -1 0 0 0 0];

internalField   nonuniform List<scalar> 
6400
(
-7.71956e-05
-7.52251e-05
-5.2721e-05
-4.81796e-05
1.62123e-05
2.55138e-05
0.000105648
0.000115409
0.000192539
0.000201228
0.000267878
0.00027498
0.000328371
0.000333775
0.000373276
0.000377033
0.00040298
0.000405202
0.000418356
0.000419174
0.000420489
0.000420037
0.000410545
0.000408955
0.00038972
0.000387118
0.000359207
0.000355715
0.000320197
0.000315935
0.000273868
0.000268951
0.0002214
0.000215944
0.000163981
0.000158103
0.00010282
9.66387e-05
3.91586e-05
3.2796e-05
-2.57187e-05
-3.21352e-05
-9.04763e-05
-9.68135e-05
-0.000153724
-0.000159843
-0.00021402
-0.000219774
-0.000269874
-0.000275115
-0.000319768
-0.000324341
-0.000362169
-0.00036592
-0.000395557
-0.000398331
-0.000418459
-0.000420105
-0.00042948
-0.000429858
-0.000427352
-0.000426328
-0.000410983
-0.000408442
-0.000379524
-0.000375371
-0.00033249
-0.000326666
-0.000269991
-0.000262516
-0.000193291
-0.00018436
-0.000106029
-9.62459e-05
-1.69041e-05
-7.87562e-06
5.34794e-05
5.7499e-05
7.62858e-05
7.80413e-05
-8.50637e-05
-8.25643e-05
-5.40394e-05
-4.98532e-05
2.92014e-05
3.77755e-05
0.000134688
0.000143686
0.000237004
0.000245014
0.000325881
0.000332428
0.000397396
0.000402377
0.000450559
0.000454022
0.000485723
0.000487772
0.000503838
0.000504593
0.00050614
0.000505723
0.000493979
0.000492513
0.000468763
0.000466364
0.000431905
0.000428686
0.00038483
0.000380901
0.000328951
0.000324419
0.000265689
0.00026066
0.000196478
0.00019106
0.00012278
0.000117082
4.60952e-05
4.02303e-05
-3.20232e-05
-3.79378e-05
-0.000109962
-0.000115803
-0.000186043
-0.000191683
-0.00025853
-0.000263834
-0.000325631
-0.000330461
-0.000385522
-0.000389738
-0.000436368
-0.000439825
-0.000476353
-0.000478909
-0.000503723
-0.000505241
-0.00051683
-0.000517178
-0.000514184
-0.00051324
-0.000494521
-0.000492178
-0.000456891
-0.000453062
-0.000400803
-0.000395435
-0.000326506
-0.000319616
-0.00023564
-0.000227407
-0.000132618
-0.000123599
-2.7583e-05
-1.92607e-05
5.62123e-05
5.99176e-05
8.38602e-05
8.61888e-05
-0.000124201
-0.000119929
-2.66922e-05
-3.15526e-06
0.000206613
0.000244517
0.000497772
0.000537913
0.000785403
0.000822338
0.00104062
0.00107182
0.00124995
0.00127435
0.00140808
0.00142542
0.00151414
0.00152454
0.00156956
0.00157335
0.0015771
0.00157474
0.00154024
0.00153225
0.00146289
0.00144981
0.00134917
0.00133157
0.00120335
0.00118181
0.00102979
0.0010049
0.00083294
0.00080529
0.000617319
0.00058752
0.000387564
0.000356241
0.000148447
0.000116242
-9.51074e-05
-0.000127528
-0.000338
-0.000369947
-0.00057496
-0.00060572
-0.000800557
-0.000829396
-0.00100924
-0.00103541
-0.00119539
-0.00121815
-0.00135342
-0.00137202
-0.00147786
-0.00149157
-0.0015635
-0.00157166
-0.00160556
-0.00160757
-0.00159989
-0.00159523
-0.0015432
-0.00153149
-0.0014334
-0.00141446
-0.00127016
-0.00124408
-0.00105575
-0.00102307
-0.000796772
-0.000758862
-0.000507451
-0.000467134
-0.000215697
-0.000178633
2.29683e-05
4.47602e-05
0.000127592
0.000130916
-0.000132879
-0.000127928
-1.03548e-05
1.31822e-05
0.000263552
0.000301456
0.000600695
0.000640836
0.000933194
0.000970129
0.00122837
0.00125956
0.00147063
0.00149504
0.00165369
0.00167103
0.00177633
0.00178673
0.00184008
0.00184387
0.00184803
0.00184567
0.00180416
0.00179616
0.00171297
0.00169989
0.00157926
0.00156167
0.00140802
0.00138648
0.00120432
0.00117943
0.000973378
0.000945729
0.000720501
0.000690703
0.000451129
0.000419805
0.00017086
0.000138655
-0.000114523
-0.000146944
-0.000399039
-0.000430986
-0.000676508
-0.000707267
-0.000940568
-0.000969407
-0.00118472
-0.00121089
-0.00140241
-0.00142516
-0.0015871
-0.00160569
-0.00173241
-0.00174613
-0.00183231
-0.00184047
-0.00188125
-0.00188326
-0.00187445
-0.00186979
-0.00180816
-0.00179645
-0.00168011
-0.00166116
-0.00149005
-0.00146396
-0.00124087
-0.00120819
-0.000940491
-0.000902581
-0.000605537
-0.000565221
-0.000267984
-0.00023092
1.00226e-05
3.18144e-05
0.000136982
0.000141102
-9.47878e-05
-7.34231e-05
0.000209527
0.000277271
0.000792029
0.000886217
0.001482
0.00158083
0.00216376
0.00225569
0.00277459
0.00285329
0.00328077
0.00334306
0.00366631
0.00371089
0.00392587
0.00395259
0.00406055
0.00406995
0.0040754
0.00406843
0.00397792
0.00395578
0.00377715
0.0037412
0.00348305
0.00343479
0.00310628
0.00304723
0.00265789
0.00258964
0.00214929
0.00207349
0.00159223
0.00151055
0.000998768
0.000912946
0.000381346
0.000293165
-0.000247201
-0.000335898
-0.000873628
-0.00096094
-0.00148429
-0.00156827
-0.00206522
-0.00214386
-0.00260219
-0.00267348
-0.00308093
-0.00314286
-0.00348733
-0.00353793
-0.00380774
-0.00384514
-0.00402933
-0.00405181
-0.0041406
-0.00414666
-0.00413185
-0.0041203
-0.00399597
-0.00396604
-0.00372933
-0.00368086
-0.00333318
-0.00326684
-0.00281576
-0.00273348
-0.0021959
-0.00210156
-0.00150897
-0.00140954
-0.000816626
-0.000724106
-0.000226258
-0.00016236
9.76296e-05
0.000116642
-8.33315e-05
-6.28629e-05
0.000267618
0.000335363
0.000914042
0.00100823
0.00167272
0.00177155
0.0024209
0.00251282
0.00309099
0.00316968
0.00364626
0.00370855
0.00406903
0.00411362
0.00435325
0.00437997
0.00449991
0.00450931
0.00451444
0.00450747
0.00440499
0.00438285
0.00418144
0.00414549
0.00385478
0.00380651
0.00343673
0.00337767
0.00293951
0.00287126
0.00237575
0.00229995
0.00175845
0.00167677
0.00110098
0.00101515
0.00041711
0.000328929
-0.000278932
-0.000367629
-0.000972478
-0.00105979
-0.00164843
-0.0017324
-0.00229131
-0.00236995
-0.00288541
-0.0029567
-0.00341496
-0.00347688
-0.00386437
-0.00391498
-0.00421861
-0.00425601
-0.00446357
-0.00448605
-0.00458659
-0.00459265
-0.00457711
-0.00456555
-0.00442741
-0.00439748
-0.00413368
-0.00408521
-0.00369755
-0.00363121
-0.00312837
-0.00304609
-0.00244707
-0.00235273
-0.0016925
-0.00159307
-0.00093152
-0.000839
-0.000278831
-0.000214933
8.97351e-05
0.000108077
9.75944e-05
0.00015003
0.000757818
0.000894004
0.00185382
0.00202436
0.0030879
0.00326316
0.0042948
0.00445741
0.0053761
0.00551566
0.00627434
0.00638507
0.00695939
0.00703862
0.00741907
0.00746611
0.00765287
0.00766832
0.00766794
0.00765328
0.00747645
0.00743371
0.00709395
0.00702553
0.00653819
0.00644674
0.00582846
0.00571682
0.00498512
0.00485624
0.00402938
0.00388634
0.0029832
0.00282915
0.00186921
0.00170743
0.000710792
0.000544647
-0.000467965
-0.000634999
-0.00164223
-0.00180658
-0.0027865
-0.0029445
-0.00387474
-0.00402266
-0.00488056
-0.00501467
-0.0057776
-0.00589418
-0.00653997
-0.00663542
-0.00714277
-0.00721368
-0.0075629
-0.00760619
-0.00777988
-0.00779291
-0.00777693
-0.00775771
-0.00754242
-0.0074898
-0.00707149
-0.00698548
-0.0063685
-0.00625068
-0.00545057
-0.00530469
-0.0043527
-0.00418571
-0.00313592
-0.00295932
-0.00189879
-0.00173076
-0.00079841
-0.000668724
-0.00010067
-5.23972e-05
0.000135051
0.000184557
0.000865384
0.00100157
0.00204651
0.00221705
0.00336672
0.00354198
0.00465479
0.0048174
0.00580776
0.00594731
0.006765
0.00687574
0.00749449
0.00757372
0.00798309
0.00803013
0.00823007
0.00824552
0.00824292
0.00822826
0.00803451
0.00799177
0.00762141
0.00755299
0.00702258
0.00693113
0.00625866
0.00614702
0.00535148
0.0052226
0.00432378
0.00418073
0.00319913
0.00304508
0.00200185
0.00184007
0.00075704
0.000590895
-0.000509424
-0.000676458
-0.00177088
-0.00193523
-0.00299996
-0.00315796
-0.00416871
-0.00431664
-0.00524885
-0.00538296
-0.00621212
-0.0063287
-0.00703077
-0.00712622
-0.00767818
-0.00774908
-0.00812965
-0.00817293
-0.00836333
-0.00837636
-0.00836139
-0.00834217
-0.00811155
-0.00805893
-0.00760881
-0.0075228
-0.00685808
-0.00674025
-0.00587785
-0.00573198
-0.00470557
-0.00453858
-0.00340593
-0.00322933
-0.00208252
-0.00191449
-0.000898773
-0.000769087
-0.000131548
-8.58949e-05
0.000475313
0.00057339
0.00165085
0.00188067
0.00342009
0.00368554
0.00532154
0.00558766
0.00715241
0.00739716
0.00878356
0.00899293
0.0101352
0.0103009
0.0111627
0.0112806
0.0118463
0.0119151
0.0121833
0.0122037
0.0121829
0.0121568
0.0118622
0.0117925
0.0112441
0.0111345
0.0103556
0.0102101
0.00922612
0.00904903
0.00788732
0.00768326
0.00637226
0.00614603
0.0047154
0.00447197
0.00295236
0.00269685
0.00111992
0.00085764
-0.000743979
-0.00100758
-0.0026003
-0.00285961
-0.00440903
-0.00465832
-0.00612939
-0.00636286
-0.00772024
-0.00793206
-0.00914055
-0.00932499
-0.0103502
-0.0105017
-0.0113108
-0.0114242
-0.0119871
-0.0120577
-0.0123481
-0.0123718
-0.0123687
-0.0123428
-0.0120324
-0.0119554
-0.0113333
-0.0112053
-0.0102795
-0.0101031
-0.00889808
-0.0086791
-0.00724129
-0.00698968
-0.00539539
-0.00512682
-0.00349244
-0.00323028
-0.00172981
-0.00150956
-0.000492005
-0.00040024
0.000539353
0.000632421
0.00181002
0.00203984
0.00368587
0.00395131
0.00568953
0.00595565
0.0076139
0.00785865
0.00932611
0.00953548
0.0107436
0.0109093
0.0118199
0.0119379
0.0125344
0.0126032
0.0128841
0.0129045
0.0128785
0.0128524
0.0125356
0.0124659
0.0118793
0.0117697
0.0109381
0.0107925
0.00974285
0.00956576
0.00832699
0.00812293
0.00672535
0.00649912
0.00497428
0.00473085
0.00311137
0.00285586
0.00117543
0.000913151
-0.000793503
-0.0010571
-0.00275424
-0.00301355
-0.00466458
-0.00491388
-0.00648153
-0.006715
-0.00816169
-0.00837352
-0.00966186
-0.0098463
-0.0109397
-0.0110912
-0.011955
-0.0120684
-0.0126705
-0.012741
-0.0130536
-0.0130774
-0.0130782
-0.0130524
-0.012727
-0.0126499
-0.0119938
-0.0118657
-0.0108873
-0.010711
-0.00943626
-0.00921728
-0.00769507
-0.00744346
-0.00575345
-0.00548488
-0.00374781
-0.00348564
-0.00188039
-0.00166014
-0.00054657
-0.000459435
0.00103682
0.00119529
0.00289277
0.00324238
0.00549891
0.00587827
0.00818824
0.00855921
0.0107326
0.0110698
0.0129794
0.0132659
0.0148303
0.0150557
0.0162281
0.016387
0.0171461
0.0172367
0.01758
0.017603
0.0175413
0.0174992
0.0170527
0.0169495
0.0161455
0.0159862
0.0148567
0.0146468
0.0132274
0.012973
0.0113021
0.0110096
0.00912727
0.00880344
0.00675177
0.00640364
0.00422605
0.0038609
0.0016023
0.00122762
-0.00106567
-0.00144216
-0.00372255
-0.00409293
-0.00631171
-0.0066679
-0.00877554
-0.00910937
-0.011056
-0.0113593
-0.0130954
-0.0133601
-0.0148373
-0.0150556
-0.0162282
-0.0163929
-0.0172188
-0.0173234
-0.0177661
-0.0178053
-0.017836
-0.0178058
-0.017406
-0.0173044
-0.0164686
-0.016296
-0.0150356
-0.0147955
-0.0131436
-0.0128437
-0.0108608
-0.0105137
-0.0082959
-0.00792089
-0.00560897
-0.00523346
-0.00302751
-0.00269085
-0.00107607
-0.000926338
0.00112602
0.00127752
0.0031028
0.00345241
0.00583774
0.0062171
0.00864552
0.0090165
0.0112952
0.0116324
0.0136314
0.0139178
0.0155535
0.0157789
0.017003
0.0171619
0.0179524
0.018043
0.0183974
0.0184203
0.0183496
0.0183075
0.017833
0.0177299
0.01688
0.0167207
0.0155292
0.0153192
0.0138233
0.0135688
0.0118086
0.0115161
0.00953389
0.00921005
0.0070499
0.00670178
0.00440936
0.00404421
0.00166671
0.00129204
-0.00112189
-0.00149838
-0.00389874
-0.00426912
-0.00660475
-0.00696095
-0.00917985
-0.00951368
-0.0115635
-0.0118668
-0.0136955
-0.0139602
-0.0155172
-0.0157355
-0.0169726
-0.0171373
-0.0180105
-0.0181151
-0.0185861
-0.0186253
-0.018664
-0.0186337
-0.0182207
-0.018119
-0.0172484
-0.0170758
-0.0157596
-0.0155195
-0.0137919
-0.0134919
-0.0114157
-0.0110686
-0.0087427
-0.00836768
-0.00593636
-0.00556085
-0.00322783
-0.00289117
-0.00115311
-0.00100993
0.0017726
0.00200607
0.00447465
0.00497039
0.00808424
0.00859693
0.0116835
0.0121734
0.015029
0.0154684
0.0179519
0.0183219
0.0203401
0.0206289
0.0221272
0.0223283
0.0232817
0.0233929
0.0237988
0.0238212
0.0236934
0.0236303
0.0229952
0.0228517
0.0217445
0.021527
0.0199897
0.0197055
0.0177848
0.0174418
0.0151881
0.0147948
0.0122611
0.0118265
0.00906854
0.00860181
0.0056771
0.00518787
0.00215591
0.0016541
-0.0014238
-0.001928
-0.00498883
-0.00548496
-0.00846429
-0.00894171
-0.0117741
-0.012222
-0.0148415
-0.0152492
-0.0175906
-0.0179474
-0.019947
-0.0202428
-0.0218402
-0.0220654
-0.0232053
-0.0233514
-0.023986
-0.024046
-0.0241375
-0.0241062
-0.0236302
-0.023505
-0.0224538
-0.0222351
-0.0206225
-0.0203146
-0.0181806
-0.0177926
-0.0152098
-0.0147567
-0.0118377
-0.0113416
-0.00824625
-0.00773761
-0.004685
-0.00420568
-0.00184417
-0.00162206
0.00188527
0.00210993
0.00473375
0.00522949
0.00849465
0.00900735
0.0122289
0.0127188
0.0156914
0.0161308
0.0187115
0.0190815
0.0211756
0.0214643
0.0230163
0.0232174
0.0242018
0.024313
0.0247274
0.0247498
0.0246086
0.0245455
0.0238762
0.0237328
0.0225721
0.0223546
0.0207461
0.0204618
0.0184541
0.0181111
0.0157567
0.0153634
0.0127175
0.0122828
0.0094033
0.00893657
0.00588339
0.00539417
0.00222928
0.00172747
-0.00148528
-0.00198948
-0.0051845
-0.00568064
-0.00879087
-0.00926829
-0.0122256
-0.0126735
-0.0154093
-0.015817
-0.0182633
-0.0186201
-0.0207106
-0.0210064
-0.0226783
-0.0229035
-0.0240992
-0.0242453
-0.0249149
-0.0249749
-0.0250792
-0.025048
-0.0245613
-0.0244361
-0.0233505
-0.0231318
-0.021461
-0.0211531
-0.0189382
-0.0185502
-0.0158656
-0.0154125
-0.0123728
-0.0118767
-0.00864478
-0.00813614
-0.0049336
-0.00445429
-0.00194225
-0.00172847
0.00267239
0.00299513
0.00638367
0.0070516
0.0111637
0.0118293
0.0157966
0.0164195
0.020031
0.0205823
0.0236883
0.0241479
0.0266481
0.0270032
0.0288384
0.029082
0.0302257
0.0303558
0.0308071
0.0308252
0.0306028
0.0305132
0.0296506
0.0294598
0.0280014
0.0277174
0.0257161
0.025348
0.0228627
0.0224205
0.0195147
0.0190091
0.0157498
0.0151921
0.0116493
0.0110511
0.00729756
0.00667102
0.0027817
0.00213925
-0.00180847
-0.00245401
-0.00638071
-0.00701619
-0.0108406
-0.0114527
-0.0150924
-0.0156674
-0.0190393
-0.0195638
-0.0225855
-0.023046
-0.0256373
-0.0260211
-0.0281055
-0.0284005
-0.0299081
-0.0301036
-0.0309736
-0.0310607
-0.0312449
-0.0312168
-0.0306833
-0.0305366
-0.029274
-0.0290087
-0.027031
-0.0266519
-0.0240041
-0.0235213
-0.0202852
-0.0197156
-0.0160165
-0.0153843
-0.0113969
-0.0107349
-0.00669213
-0.00604391
-0.00278699
-0.00247829
0.00280705
0.00311925
0.00668989
0.00735782
0.0116438
0.0123095
0.0164284
0.0170513
0.0207916
0.0213429
0.0245539
0.0250134
0.0275939
0.0279489
0.0298392
0.0300827
0.0312565
0.0313865
0.0318433
0.0318614
0.0316207
0.0315311
0.0306279
0.0304371
0.0289174
0.0286334
0.0265519
0.0261838
0.0236015
0.0231594
0.0201419
0.0196364
0.0162532
0.0156955
0.012019
0.0114208
0.00752617
0.00689964
0.00286446
0.00222201
-0.00187371
-0.00251925
-0.00659336
-0.00722884
-0.0111973
-0.0118094
-0.0155869
-0.0161619
-0.0196627
-0.0201871
-0.0233257
-0.0237862
-0.0264796
-0.0268634
-0.0290325
-0.0293275
-0.0308998
-0.0310953
-0.0320079
-0.0320949
-0.0322976
-0.0322695
-0.0317289
-0.0315822
-0.0302862
-0.0300209
-0.0279835
-0.0276043
-0.0248708
-0.024388
-0.0210415
-0.0204718
-0.0166393
-0.0160071
-0.0118655
-0.0112035
-0.00698756
-0.00633934
-0.0029049
-0.0026062
0.00372754
0.00415344
0.00860756
0.00947336
0.0147242
0.0155625
0.0205156
0.021286
0.0257278
0.0264008
0.0301778
0.0307329
0.0337418
0.0341657
0.0363461
0.0366323
0.0379592
0.0381058
0.0385826
0.0385922
0.0382441
0.0381222
0.0369916
0.0367462
0.0348883
0.0345293
0.0320088
0.0315474
0.0284365
0.0278849
0.024261
0.0236323
0.0195772
0.018885
0.0144841
0.0137425
0.00908411
0.00830796
0.00348337
0.00268771
-0.00220905
-0.00300866
-0.00788106
-0.00866866
-0.013418
-0.0141773
-0.0187031
-0.0194177
-0.0236188
-0.0242721
-0.0280481
-0.0286239
-0.0318763
-0.0323589
-0.0349942
-0.0353687
-0.0373006
-0.037554
-0.0387071
-0.038828
-0.0391416
-0.0391217
-0.0385543
-0.0383887
-0.0369229
-0.036611
-0.0342588
-0.0338053
-0.0306136
-0.0300293
-0.0260861
-0.0253891
-0.0208291
-0.0200453
-0.0150545
-0.0142184
-0.0090403
-0.00819697
-0.00389727
-0.00348794
0.00388304
0.00429678
0.00895927
0.00982507
0.0152724
0.0161107
0.0212324
0.0220028
0.0265854
0.0272584
0.0311481
0.0317031
0.0347963
0.0352203
0.0374569
0.037743
0.0390985
0.0392451
0.0397238
0.0397334
0.0393618
0.0392399
0.038062
0.0378167
0.0358895
0.0355305
0.032921
0.0324596
0.029242
0.0286904
0.0249446
0.0243159
0.020126
0.0194338
0.0148877
0.0141462
0.00933495
0.00855879
0.00357628
0.00278062
-0.00227643
-0.00307604
-0.00810829
-0.00889589
-0.0138017
-0.014561
-0.0192371
-0.0199517
-0.0242939
-0.0249472
-0.0288519
-0.0294277
-0.0327936
-0.0332761
-0.0360066
-0.0363812
-0.0383872
-0.0386406
-0.0398443
-0.0399652
-0.0403036
-0.0402837
-0.0397135
-0.0395479
-0.0380505
-0.0377386
-0.0353253
-0.0348719
-0.0315896
-0.0310054
-0.026943
-0.0262461
-0.0215394
-0.0207557
-0.0155924
-0.0147564
-0.00938155
-0.00853823
-0.00403421
-0.0036365
0.00493165
0.00547431
0.0111367
0.0122257
0.0187551
0.0197858
0.0258307
0.0267631
0.0321107
0.0329154
0.0374121
0.0380686
0.0416119
0.0421075
0.0446398
0.0449681
0.0464692
0.0466298
0.0471098
0.0471063
0.0465996
0.0464393
0.0449989
0.0446916
0.0423851
0.0419428
0.0388484
0.0382846
0.0344885
0.0338177
0.0294125
0.0286502
0.023733
0.0228955
0.0175674
0.0166713
0.0110369
0.0100996
0.00426685
0.00330618
-0.00261396
-0.00357963
-0.00947314
-0.010425
-0.0161751
-0.0170939
-0.0225818
-0.0234481
-0.0285538
-0.029348
-0.0339516
-0.0346543
-0.0386386
-0.039231
-0.0424834
-0.0429478
-0.045364
-0.0456843
-0.0471721
-0.0473346
-0.0478186
-0.0478126
-0.0472392
-0.0470581
-0.045401
-0.045043
-0.0423091
-0.0417784
-0.0380134
-0.037321
-0.0326159
-0.0317805
-0.0262763
-0.0253251
-0.0192165
-0.0181854
-0.0117249
-0.0106602
-0.00517083
-0.00464692
0.00510726
0.00563618
0.0115327
0.0126217
0.0193699
0.0204007
0.0266314
0.0275637
0.0330642
0.0338689
0.038486
0.0391426
0.0427743
0.0432698
0.0458592
0.0461876
0.0477156
0.0478761
0.0483542
0.0483507
0.047815
0.0476546
0.0461602
0.0458529
0.0434692
0.0430269
0.0398347
0.0392708
0.0353587
0.0346879
0.0301507
0.0293885
0.0243261
0.0234885
0.0180046
0.0171085
0.0113102
0.0103729
0.00437092
0.00341026
-0.00268173
-0.00364741
-0.00971253
-0.0106644
-0.016583
-0.0175018
-0.023152
-0.0240183
-0.029277
-0.0300712
-0.0348155
-0.0355182
-0.0396275
-0.0402199
-0.0435784
-0.0440428
-0.0465432
-0.0468635
-0.0484108
-0.0485732
-0.0490892
-0.0490831
-0.048512
-0.0483308
-0.0466445
-0.0462865
-0.0434906
-0.04296
-0.0390999
-0.0384076
-0.0335745
-0.0327391
-0.0270748
-0.0261235
-0.0198238
-0.0187927
-0.0121117
-0.0110469
-0.00532644
-0.00481573
0.00628078
0.00695357
0.0139648
0.0153019
0.0232489
0.0244918
0.031735
0.0328441
0.0391734
0.0401198
0.045385
0.0461489
0.0502521
0.0508216
0.0537113
0.0540814
0.0557458
0.0559173
0.0563764
0.0563551
0.055655
0.0554499
0.0536569
0.0532802
0.0504758
0.0499418
0.0462193
0.0455439
0.0410049
0.0402053
0.034958
0.0340522
0.0282098
0.0272166
0.0208964
0.0198352
0.0131582
0.0120489
0.00513971
0.00400296
-0.00301046
-0.00415353
-0.0111395
-0.0122672
-0.0190909
-0.020181
-0.0267047
-0.0277347
-0.033819
-0.034766
-0.0402712
-0.0411126
-0.0459009
-0.0466146
-0.050553
-0.051118
-0.0540823
-0.0544793
-0.0563582
-0.0565705
-0.057271
-0.0572852
-0.0567385
-0.0565457
-0.0547131
-0.0543101
-0.0511899
-0.0505794
-0.0462129
-0.0454057
-0.0398834
-0.0388983
-0.0323647
-0.0312297
-0.0238863
-0.0226385
-0.0147464
-0.0134337
-0.00660683
-0.00595427
0.0064761
0.00713362
0.0144045
0.0157416
0.0239298
0.0251727
0.0326188
0.0337278
0.0402223
0.0411687
0.0465621
0.047326
0.0515215
0.0520909
0.0550385
0.0554086
0.0570978
0.0572694
0.0577224
0.057701
0.0569662
0.0567611
0.0549068
0.0545301
0.0516405
0.0511066
0.0472775
0.0466021
0.0419378
0.0411382
0.0357494
0.0348436
0.0288462
0.027853
0.0213669
0.0203056
0.0134545
0.0123452
0.00525615
0.0041194
-0.0030767
-0.00421977
-0.0113885
-0.0125162
-0.0195198
-0.0206099
-0.0273076
-0.0283375
-0.0345868
-0.0355338
-0.0411916
-0.042033
-0.046958
-0.0476717
-0.0517278
-0.0522928
-0.055352
-0.055749
-0.0576969
-0.0579092
-0.0586496
-0.0586638
-0.058125
-0.0579323
-0.0560735
-0.0556704
-0.0524879
-0.0518775
-0.0474116
-0.0466044
-0.0409452
-0.0399602
-0.0332526
-0.0321176
-0.0245639
-0.0233162
-0.015179
-0.0138664
-0.00678119
-0.00614342
0.0077732
0.00858945
0.017089
0.0186992
0.0282024
0.0296772
0.0382253
0.0395256
0.0469128
0.0480109
0.0540931
0.0549701
0.0596574
0.060303
0.063554
0.0639651
0.0657797
0.0659591
0.066371
0.0663266
0.0653967
0.0651403
0.0629503
0.0624966
0.0591445
0.0585105
0.0541061
0.0533103
0.0479719
0.0470343
0.0408867
0.0398279
0.0330008
0.0318422
0.0244691
0.0232329
0.0154512
0.0141598
0.00611058
0.00478743
-0.00338453
-0.00471562
-0.0128614
-0.0141758
-0.0221425
-0.0234152
-0.0310462
-0.0322514
-0.0393876
-0.0404993
-0.0469801
-0.0479722
-0.0536384
-0.0544852
-0.0591818
-0.0598588
-0.0634393
-0.0639235
-0.0662548
-0.0665261
-0.0674944
-0.0675363
-0.0670539
-0.0668545
-0.0648668
-0.0644203
-0.0609128
-0.0602205
-0.0552261
-0.0542976
-0.0479028
-0.0467567
-0.039107
-0.0377716
-0.0290735
-0.0275872
-0.0181105
-0.0165227
-0.00820774
-0.00741217
0.00798816
0.00878761
0.0175723
0.0191825
0.0289492
0.030424
0.039192
0.0404924
0.0480569
0.0491549
0.055373
0.0562499
0.0610332
0.0616788
0.064988
0.065399
0.0672361
0.0674155
0.0678168
0.0677725
0.0668015
0.0665451
0.0642866
0.0638329
0.0603875
0.0597535
0.0552339
0.0544382
0.0489655
0.0480279
0.0417297
0.0406709
0.0336795
0.0325209
0.0249725
0.0237363
0.0157708
0.0144795
0.00624069
0.00491754
-0.00344713
-0.00477822
-0.0131171
-0.0144316
-0.0225889
-0.0238616
-0.0316779
-0.0328831
-0.0401959
-0.0413076
-0.0479529
-0.048945
-0.0547601
-0.055607
-0.0604331
-0.0611101
-0.064797
-0.0652812
-0.067692
-0.0679633
-0.0689805
-0.0690223
-0.0685547
-0.0683552
-0.0663452
-0.0658987
-0.0623292
-0.0616369
-0.0565393
-0.0556107
-0.0490704
-0.0479243
-0.0400866
-0.0387512
-0.0298233
-0.028337
-0.0185903
-0.0170025
-0.00840135
-0.0076222
0.00940921
0.0103823
0.0205099
0.0224181
0.0336163
0.0353428
0.045302
0.0468083
0.0553288
0.0565882
0.0635345
0.0645301
0.0698238
0.0705473
0.074161
0.0746117
0.0765609
0.0767444
0.0770803
0.0770073
0.0758087
0.0754941
0.0728614
0.0723229
0.0683727
0.0676303
0.0624909
0.0615661
0.0553736
0.0542891
0.0471858
0.0459651
0.0380974
0.0367646
0.0282823
0.026862
0.0179187
0.0164361
0.00718859
0.00566958
-0.00372094
-0.00524987
-0.0146178
-0.0161293
-0.0253043
-0.0267703
-0.0355772
-0.036969
-0.0452285
-0.0465167
-0.0540473
-0.0552022
-0.0618219
-0.0628141
-0.0683443
-0.0691453
-0.0734147
-0.0739976
-0.0768484
-0.0771889
-0.0784829
-0.0785607
-0.0781871
-0.0779868
-0.0758704
-0.075383
-0.071492
-0.0707164
-0.0650711
-0.064015
-0.0566941
-0.0553755
-0.0465223
-0.0449696
-0.0347943
-0.0330468
-0.0218284
-0.0199376
-0.0099792
-0.00902577
0.00964401
0.0105987
0.021037
0.0229452
0.0344294
0.0361559
0.0463522
0.0478585
0.0565681
0.0578276
0.064917
0.0659126
0.0713055
0.072029
0.0757006
0.0761512
0.0781201
0.0783036
0.0786238
0.0785508
0.0773046
0.07699
0.0742812
0.0737427
0.0696911
0.0689487
0.0636855
0.0627607
0.0564254
0.0553409
0.0480783
0.0468576
0.038817
0.0374842
0.0288181
0.0273978
0.0182621
0.0167795
0.00733371
0.00581469
-0.00377762
-0.00530655
-0.0148771
-0.0163887
-0.0257644
-0.0272305
-0.0362333
-0.037625
-0.0460725
-0.0473607
-0.0550678
-0.0562226
-0.0630037
-0.0639959
-0.0696681
-0.0704691
-0.0748572
-0.0754401
-0.0783818
-0.0787224
-0.0800752
-0.080153
-0.0798021
-0.0796018
-0.0774681
-0.0769807
-0.0730291
-0.0722535
-0.0665016
-0.0654456
-0.0579707
-0.0566521
-0.0475969
-0.0460441
-0.0356191
-0.0338716
-0.0223574
-0.0204665
-0.0101929
-0.00925762
0.0111909
0.0123343
0.024231
0.0264623
0.039495
0.0414928
0.0529693
0.0546959
0.0644234
0.0658538
0.0737086
0.0748279
0.0807469
0.0815496
0.0855234
0.0860119
0.0880763
0.0882596
0.0884868
0.0883792
0.0868701
0.08649
0.0833669
0.0827355
0.0781362
0.077277
0.07135
0.0702877
0.0631885
0.0619488
0.0538377
0.0524468
0.0434873
0.041972
0.03233
0.0307176
0.0205619
0.0188799
0.00838257
0.00665929
-0.0040033
-0.00573884
-0.0163854
-0.0181033
-0.0285467
-0.0302162
-0.0402634
-0.0418525
-0.0513047
-0.0527808
-0.0614348
-0.0627646
-0.0704149
-0.0715651
-0.0780074
-0.0789452
-0.0839814
-0.0846752
-0.0881192
-0.0885403
-0.0902252
-0.0903486
-0.0901363
-0.0899422
-0.0877311
-0.0872067
-0.0829429
-0.0820835
-0.0757691
-0.0745801
-0.066282
-0.0647798
-0.0546359
-0.0528487
-0.0410711
-0.0390392
-0.0259166
-0.0236935
-0.0119298
-0.010803
0.011446
0.0125694
0.0248027
0.0270341
0.0403753
0.0423731
0.0541036
0.0558303
0.0657586
0.067189
0.0751937
0.0763129
0.0823337
0.0831364
0.0871672
0.0876556
0.0897359
0.0899192
0.090125
0.0900175
0.0884536
0.0880736
0.0848663
0.084235
0.0795258
0.0786666
0.0726075
0.0715452
0.0642949
0.0630551
0.0547768
0.0533859
0.0442457
0.0427305
0.0328971
0.0312846
0.0209291
0.0192471
0.00854392
0.00682064
-0.00405161
-0.00578716
-0.0166447
-0.0183627
-0.0290159
-0.0306854
-0.0409385
-0.0425276
-0.0521786
-0.0536547
-0.0624969
-0.0638267
-0.0716508
-0.0728009
-0.0793984
-0.0803361
-0.0855041
-0.0861979
-0.0897455
-0.0901666
-0.0919218
-0.0920452
-0.091865
-0.0916709
-0.089449
-0.0889245
-0.0846027
-0.0837433
-0.0773203
-0.0761313
-0.0676715
-0.0661693
-0.0558094
-0.0540222
-0.0419745
-0.0399426
-0.0264972
-0.0242741
-0.0121648
-0.011058
0.0131219
0.0144494
0.0282585
0.0308385
0.0458462
0.0481352
0.0612339
0.0631951
0.074201
0.0758112
0.0846152
0.0858625
0.0924209
0.0933031
0.0976293
0.0981528
0.100307
0.100485
0.100566
0.100418
0.0985522
0.0980989
0.0944349
0.0937025
0.0884019
0.0874175
0.0806511
0.079443
0.071387
0.0699841
0.0608175
0.0592489
0.049152
0.0474471
0.0366015
0.03479
0.0233789
0.0214907
0.00970014
0.00776556
-0.00421436
-0.006164
-0.0181377
-0.0200702
-0.0318353
-0.0337171
-0.0450638
-0.0468602
-0.0575705
-0.0592456
-0.0690948
-0.0706117
-0.07937
-0.0806911
-0.0881273
-0.0892151
-0.0951013
-0.0959195
-0.100038
-0.100552
-0.102702
-0.102882
-0.102893
-0.102714
-0.100453
-0.0998965
-0.0952797
-0.0943374
-0.0873434
-0.086017
-0.0766954
-0.074999
-0.0634785
-0.0614397
-0.0479323
-0.045592
-0.030396
-0.0278101
-0.0140708
-0.0127542
0.013398
0.0147038
0.0288761
0.0314561
0.046795
0.0490841
0.0624536
0.0644148
0.0756327
0.0772429
0.0862028
0.08745
0.0941117
0.0949939
0.099375
0.0998985
0.102064
0.102242
0.102295
0.102146
0.100219
0.0997652
0.0960087
0.0952762
0.0898572
0.0888728
0.0819661
0.080758
0.072543
0.07114
0.0617989
0.0602303
0.0499461
0.0482413
0.0371979
0.0353864
0.0237695
0.0218812
0.00987874
0.00794416
-0.00425177
-0.0062014
-0.0183931
-0.0203255
-0.0323083
-0.0341901
-0.0457515
-0.0475479
-0.058467
-0.0601421
-0.0701909
-0.0717077
-0.0806524
-0.0819734
-0.0895782
-0.0906661
-0.0966979
-0.0975161
-0.101752
-0.102266
-0.1045
-0.10468
-0.104734
-0.104555
-0.102291
-0.101735
-0.0970643
-0.096122
-0.0890186
-0.0876922
-0.0782021
-0.0765058
-0.0647558
-0.0627169
-0.0489187
-0.0465783
-0.0310317
-0.0284458
-0.0143288
-0.013034
0.0152075
0.0167332
0.0326014
0.035556
0.0526807
0.0552806
0.0701055
0.072315
0.0846669
0.0864651
0.0962533
0.0976318
0.104837
0.105798
0.110461
0.111015
0.113228
0.113394
0.113285
0.113087
0.110815
0.11028
0.106022
0.10518
0.0991244
0.0980064
0.0903497
0.088988
0.0799281
0.0783548
0.0680898
0.0663371
0.0550641
0.0531639
0.0410793
0.0390633
0.0263635
0.0242637
0.0111468
0.00899561
-0.0043365
-0.00650602
-0.0198455
-0.021999
-0.0351301
-0.0372318
-0.0499292
-0.0519419
-0.0639699
-0.0658544
-0.0769673
-0.078683
-0.0886264
-0.0901315
-0.0986457
-0.0998977
-0.106722
-0.107679
-0.11256
-0.113182
-0.115883
-0.116133
-0.116441
-0.116288
-0.114033
-0.113452
-0.108514
-0.107491
-0.0998169
-0.09835
-0.0879658
-0.0860656
-0.0730857
-0.0707782
-0.0554116
-0.0527381
-0.0352924
-0.0323116
-0.0164162
-0.0148924
0.0155053
0.0170077
0.0332663
0.036221
0.0537
0.0562999
0.0714121
0.0736216
0.0861959
0.0879941
0.097943
0.0993214
0.10663
0.107591
0.112305
0.11286
0.115077
0.115244
0.115099
0.114901
0.112558
0.112022
0.107663
0.10682
0.100638
0.09952
0.0917147
0.090353
0.0811268
0.0795535
0.0691077
0.067355
0.0558893
0.0539891
0.0417021
0.0396861
0.0267762
0.0246764
0.0113434
0.00919211
-0.00436042
-0.00652993
-0.0200924
-0.0222459
-0.0356006
-0.0377024
-0.0506218
-0.0526345
-0.0648802
-0.0667647
-0.0780878
-0.0798035
-0.0899455
-0.0914505
-0.100147
-0.101399
-0.108384
-0.109341
-0.114355
-0.114977
-0.117776
-0.118026
-0.118391
-0.118238
-0.11599
-0.11541
-0.110424
-0.109402
-0.101619
-0.100153
-0.0895945
-0.0876944
-0.0744721
-0.0721645
-0.0564861
-0.0538127
-0.0359871
-0.0330063
-0.016699
-0.0151991
0.017454
0.0191926
0.0372709
0.0406268
0.0600123
0.0629429
0.0795957
0.0820666
0.0958269
0.0978201
0.10862
0.110131
0.117981
0.119018
0.123993
0.124573
0.126802
0.126949
0.126598
0.126342
0.123606
0.122979
0.118069
0.117108
0.110243
0.108983
0.100386
0.098863
0.088756
0.087006
0.0756063
0.0736642
0.0611853
0.0590853
0.0457369
0.0435128
0.0295029
0.0271883
0.0127247
0.0103536
-0.00435238
-0.00674543
-0.0214763
-0.0238554
-0.0383845
-0.040712
-0.0548011
-0.0570373
-0.0704346
-0.0725376
-0.0849774
-0.086903
-0.0981063
-0.0998082
-0.109486
-0.110916
-0.118773
-0.119885
-0.125627
-0.126373
-0.12972
-0.130055
-0.130749
-0.130635
-0.128458
-0.127863
-0.12265
-0.121552
-0.113211
-0.111602
-0.100126
-0.0980137
-0.0834968
-0.0809038
-0.0635476
-0.0605156
-0.0406359
-0.0372263
-0.0189827
-0.017233
0.0177747
0.0194882
0.0379852
0.0413411
0.0611042
0.0640349
0.0809911
0.0834619
0.0974539
0.0994471
0.110411
0.111922
0.119874
0.120911
0.125932
0.126512
0.128738
0.128885
0.128489
0.128233
0.125415
0.124789
0.119767
0.118806
0.111805
0.110545
0.101791
0.100268
0.0899885
0.0882385
0.0766529
0.0747107
0.0620352
0.0599352
0.0463816
0.0441575
0.0299353
0.0276207
0.0129392
0.0105681
-0.0043603
-0.00675335
-0.0217099
-0.0240889
-0.0388455
-0.041173
-0.0554895
-0.0577257
-0.071348
-0.073451
-0.0861104
-0.088036