/*--------------------------------*- C++ -*----------------------------------*\
| =========                 |                                                 |
| \\      /  F ield         | OpenFOAM: The Open Source CFD Toolbox           |
|  \\    /   O peration     | Version:  2506                                  |
|   \\  /    A nd           | Website:  www.openfoam.com                      |
|    \\/     M anipulation  |                                                 |
\*---------------------------------------------------------------------------*/
FoamFile
{
    version     2.0;
    format      ascii;
    arch        "LSB;label=32;scalar=64";
    class       volVectorField;
    location    "6";
    object      ddtU;
}
// * * * * * * * * * * * * * * * * * * * * * * * * * * * * * * * * * * * * * //

dimensions      [0 1 -2 0 0 0 0];

internalField   nonuniform List<vector> 
400
(
(-4.44089e-14 1.09502e-13 0)
(6.66134e-14 -1.51106e-14 0)
(2.22045e-14 4.30628e-15 0)
(0 2.97914e-15 0)
(1.11022e-13 1.17864e-14 0)
(-2.22045e-14 9.93041e-15 0)
(0 5.70487e-15 0)
(0 -1.86877e-15 0)
(-2.22045e-14 -1.16622e-14 0)
(0 -8.7896e-15 0)
(0 3.87556e-15 0)
(0 7.68672e-15 0)
(4.44089e-14 8.07181e-15 0)
(-4.44089e-14 5.25775e-15 0)
(0 -2.2443e-15 0)
(4.44089e-14 -9.40951e-15 0)
(0 -1.8105e-14 0)
(4.44089e-14 2.33621e-16 0)
(0 1.8854e-14 0)
(0 -4.28892e-15 0)
(8.88178e-14 6.98945e-15 0)
(0 2.69325e-14 0)
(0 -3.66213e-15 0)
(0 -1.24102e-14 0)
(4.44089e-14 -1.27907e-14 0)
(4.44089e-14 2.86856e-15 0)
(4.44089e-14 1.20376e-14 0)
(2.22045e-14 1.45888e-14 0)
(2.22045e-14 6.49442e-15 0)
(0 -5.78923e-15 0)
(-2.22045e-14 -1.78268e-15 0)
(0 1.4092e-15 0)
(2.22045e-14 1.44187e-14 0)
(-2.22045e-14 1.23821e-14 0)
(2.22045e-14 3.20157e-16 0)
(0 -4.19812e-15 0)
(4.44089e-14 -8.91372e-15 0)
(-4.44089e-14 -1.24986e-15 0)
(-4.44089e-14 1.46856e-14 0)
(0 1.71141e-15 0)
(4.44089e-14 2.21341e-14 0)
(2.22045e-14 1.77914e-15 0)
(4.44089e-14 1.7436e-14 0)
(6.66134e-14 4.8297e-15 0)
(-2.22045e-14 -1.1543e-14 0)
(0 -4.3442e-15 0)
(-4.44089e-14 -3.12425e-15 0)
(0 8.52744e-15 0)
(0 1.59268e-14 0)
(0 1.31259e-14 0)
(0 2.57041e-15 0)
(-6.66134e-14 6.58668e-15 0)
(-4.44089e-14 9.22762e-15 0)
(-4.44089e-14 -5.23713e-16 0)
(0 -1.09832e-14 0)
(0 1.27916e-15 0)
(0 1.61905e-14 0)
(-4.44089e-14 6.51847e-15 0)
(2.22045e-14 1.07006e-15 0)
(2.22045e-14 5.69538e-15 0)
(8.88178e-14 9.18207e-14 0)
(4.44089e-14 -4.15477e-15 0)
(-8.88178e-14 2.65653e-14 0)
(6.66134e-14 3.39294e-14 0)
(-4.44089e-14 1.67994e-14 0)
(0 -2.48842e-15 0)
(0 -1.29358e-14 0)
(0 -4.63034e-15 0)
(0 1.12099e-14 0)
(0 1.46276e-14 0)
(0 -3.24789e-15 0)
(0 2.90311e-15 0)
(0 1.81486e-16 0)
(0 -8.61296e-15 0)
(-4.44089e-14 -9.25372e-15 0)
(0 2.59282e-16 0)
(-4.44089e-14 1.44831e-14 0)
(-2.22045e-14 7.66129e-15 0)
(0 6.42764e-15 0)
(0 4.57168e-15 0)
(-8.88178e-14 -3.5745e-14 0)
(-4.44089e-14 4.34315e-14 0)
(-4.44089e-14 6.19193e-15 0)
(0 3.69475e-15 0)
(8.88178e-14 4.92089e-15 0)
(6.66134e-14 1.29634e-15 0)
(2.22045e-14 -2.41405e-15 0)
(2.22045e-14 3.00217e-15 0)
(-2.22045e-14 1.0206e-14 0)
(4.44089e-14 5.65222e-15 0)
(2.22045e-14 -2.55727e-16 0)
(-4.44089e-14 1.07671e-14 0)
(-4.44089e-14 1.31801e-15 0)
(-2.22045e-14 -1.34708e-14 0)
(0 -4.68755e-15 0)
(0 5.15367e-16 0)
(-2.22045e-14 1.19072e-14 0)
(2.22045e-14 -1.28468e-15 0)
(2.22045e-14 3.31922e-15 0)
(2.22045e-14 1.33585e-14 0)
(0 -4.10522e-14 0)
(4.44089e-14 2.08658e-14 0)
(4.44089e-14 -4.63062e-15 0)
(4.44089e-14 -9.96009e-15 0)
(4.44089e-14 3.59774e-15 0)
(2.22045e-14 9.30735e-15 0)
(4.44089e-14 6.61988e-15 0)
(0 9.61961e-15 0)
(0 -4.74046e-15 0)
(0 -7.82967e-15 0)
(0 2.18628e-14 0)
(2.22045e-14 4.09857e-14 0)
(2.22045e-14 7.47034e-15 0)
(2.22045e-14 -2.78718e-14 0)
(-2.22045e-14 -2.06282e-14 0)
(-2.22045e-14 -3.9067e-17 0)
(0 1.36785e-15 0)
(-2.22045e-14 3.68456e-15 0)
(0 1.04426e-14 0)
(-2.22045e-14 4.87255e-15 0)
(4.44089e-14 2.04984e-13 0)
(0 -2.67887e-14 0)
(-2.22045e-14 1.47798e-14 0)
(0 9.72616e-15 0)
(-2.22045e-14 1.61994e-14 0)
(-4.44089e-14 -3.41712e-15 0)
(2.22045e-14 -2.96613e-16 0)
(-2.22045e-14 1.67356e-14 0)
(0 2.47366e-14 0)
(0 3.94619e-15 0)
(-4.44089e-14 -2.35683e-15 0)
(0 -7.864e-15 0)
(6.66134e-14 -1.33966e-14 0)
(4.44089e-14 -9.4147e-15 0)
(2.22045e-14 7.43754e-15 0)
(0 2.45017e-14 0)
(4.44089e-14 -1.65951e-15 0)
(-4.44089e-14 2.72429e-15 0)
(-2.22045e-14 4.86687e-15 0)
(0 -8.34634e-15 0)
(4.44089e-14 -5.29e-14 0)
(4.44089e-14 3.47497e-14 0)
(4.44089e-14 1.01178e-14 0)
(4.44089e-14 1.86625e-14 0)
(4.44089e-14 1.71365e-14 0)
(0 9.2259e-15 0)
(0 9.35247e-15 0)
(0 1.00785e-14 0)
(-4.44089e-14 1.30115e-14 0)
(4.44089e-14 3.08982e-15 0)
(4.44089e-14 -8.60495e-15 0)
(0 -1.19393e-14 0)
(2.22045e-14 1.07429e-14 0)
(-4.44089e-14 2.82275e-14 0)
(-4.44089e-14 7.57337e-15 0)
(-4.44089e-14 8.0309e-16 0)
(-4.44089e-14 -6.37849e-15 0)
(0 -1.00088e-15 0)
(0 9.36736e-15 0)
(0 -3.33466e-15 0)
(0 -6.73586e-14 0)
(-2.22045e-14 3.78815e-14 0)
(4.44089e-14 7.93992e-15 0)
(-4.44089e-14 1.36094e-14 0)
(0 5.59357e-15 0)
(0 3.28948e-14 0)
(0 4.09914e-14 0)
(0 1.53548e-14 0)
(2.22045e-14 -1.55707e-14 0)
(-2.22045e-14 -1.7601e-14 0)
(0 -4.75145e-16 0)
(-2.22045e-14 1.36941e-14 0)
(0 1.67995e-14 0)
(4.44089e-14 1.55603e-14 0)
(4.44089e-14 -2.00796e-15 0)
(0 -1.35388e-14 0)
(4.44089e-14 -8.02901e-16 0)
(-2.22045e-14 4.14195e-15 0)
(2.22045e-14 6.10067e-15 0)
(4.44089e-14 4.95614e-15 0)
(-4.44089e-14 1.80009e-13 0)
(-4.44089e-14 -3.12156e-14 0)
(2.22045e-14 3.0028e-14 0)
(-4.44089e-14 2.47358e-14 0)
(-2.22045e-14 2.54468e-14 0)
(-2.22045e-14 4.0396e-14 0)
(-4.44089e-14 2.57803e-14 0)
(6.66134e-14 -7.53838e-15 0)
(2.22045e-14 -1.66613e-14 0)
(0 -1.6667e-15 0)
(-4.44089e-14 -5.96935e-15 0)
(0 -1.26515e-14 0)
(4.44089e-14 -1.03314e-14 0)
(0 -5.08816e-15 0)
(-4.44089e-14 2.3181e-14 0)
(-4.44089e-14 7.81544e-15 0)
(0 -3.83703e-15 0)
(0 -1.08246e-14 0)
(2.22045e-14 -1.10611e-14 0)
(0 2.16892e-15 0)
(1.33227e-13 -1.13403e-13 0)
(2.22045e-14 5.20375e-14 0)
(-4.44089e-14 2.51106e-14 0)
(-2.22045e-14 2.52774e-14 0)
(6.66134e-14 8.1794e-15 0)
(4.44089e-14 1.21301e-14 0)
(6.66134e-14 2.19029e-15 0)
(4.44089e-14 -5.94442e-15 0)
(0 -1.25458e-15 0)
(-4.44089e-14 1.10777e-14 0)
(0 -1.37898e-15 0)
(-2.22045e-14 -1.61441e-14 0)
(0 3.49973e-15 0)
(0 2.41677e-15 0)
(-2.22045e-14 8.56923e-15 0)
(2.22045e-14 -1.23049e-14 0)
(6.66134e-14 -1.44133e-14 0)
(2.22045e-14 -5.56343e-16 0)
(2.22045e-14 7.27947e-16 0)
(-2.22045e-14 -8.47901e-15 0)
(-8.88178e-14 4.62101e-14 0)
(4.44089e-14 2.56364e-14 0)
(-4.44089e-14 2.1062e-14 0)
(0 2.27559e-15 0)
(8.88178e-14 1.1201e-15 0)
(-4.44089e-14 -1.07441e-15 0)
(0 8.36674e-15 0)
(0 -3.3175e-15 0)
(0 -1.13363e-14 0)
(4.44089e-14 -6.17236e-15 0)
(4.44089e-14 -5.08701e-15 0)
(4.44089e-14 -7.58467e-15 0)
(4.44089e-14 -1.6964e-15 0)
(-4.44089e-14 3.30888e-15 0)
(4.44089e-14 -3.4081e-16 0)
(0 -1.88121e-15 0)
(-4.44089e-14 6.96677e-15 0)
(-4.44089e-14 9.8745e-15 0)
(0 3.28713e-15 0)
(2.22045e-14 -5.11043e-15 0)
(0 6.8667e-14 0)
(-2.22045e-14 8.98562e-15 0)
(4.44089e-14 -2.20492e-14 0)
(0 -8.25093e-15 0)
(0 2.7646e-14 0)
(0 2.13096e-14 0)
(4.44089e-14 5.57361e-15 0)
(4.44089e-14 -9.52285e-15 0)
(-4.44089e-14 -2.99021e-14 0)
(0 -3.41932e-14 0)
(8.88178e-14 -6.06038e-15 0)
(0 1.16301e-14 0)
(0 4.21704e-15 0)
(-4.44089e-14 7.10078e-15 0)
(0 -7.74028e-16 0)
(-4.44089e-14 1.22033e-14 0)
(0 1.02178e-14 0)
(4.44089e-14 -6.76569e-15 0)
(-4.44089e-14 -1.16512e-14 0)
(4.44089e-14 -5.73181e-15 0)
(-6.66134e-14 -3.04631e-14 0)
(0 2.69143e-14 0)
(2.22045e-14 -3.4076e-15 0)
(-8.88178e-14 4.64404e-15 0)
(0 9.08925e-15 0)
(-4.44089e-14 -4.60212e-15 0)
(-4.44089e-14 -3.13553e-14 0)
(4.44089e-14 -1.18382e-14 0)
(0 -4.2682e-15 0)
(2.22045e-14 -1.2592e-14 0)
(0 3.62146e-15 0)
(-4.44089e-14 4.51576e-15 0)
(0 2.48596e-15 0)
(2.22045e-14 1.32646e-14 0)
(4.44089e-14 1.27311e-14 0)
(0 1.84507e-14 0)
(0 6.34836e-15 0)
(0 -1.36079e-14 0)
(-2.22045e-14 -2.42495e-14 0)
(2.22045e-14 -1.2104e-14 0)
(8.88178e-14 1.13117e-13 0)
(-4.44089e-14 5.43579e-15 0)
(0 2.99108e-14 0)
(4.44089e-14 1.47851e-14 0)
(4.44089e-14 4.87525e-15 0)
(2.22045e-14 -1.19112e-14 0)
(0 -4.3189e-14 0)
(-4.44089e-14 -4.2206e-14 0)
(0 -1.22647e-14 0)
(-4.44089e-14 3.54442e-15 0)
(2.22045e-14 -5.30708e-15 0)
(2.22045e-14 -5.27942e-15 0)
(0 6.21929e-15 0)
(-4.44089e-14 8.30632e-15 0)
(0 1.03128e-14 0)
(4.44089e-14 7.18634e-15 0)
(6.66134e-14 1.01545e-14 0)
(4.44089e-14 -5.72036e-15 0)
(2.22045e-14 -7.57895e-15 0)
(0 -7.2519e-15 0)
(-8.88178e-14 -1.69235e-14 0)
(0 3.56021e-14 0)
(4.44089e-14 -3.8794e-15 0)
(0 -4.74996e-15 0)
(4.44089e-14 -2.60692e-14 0)
(4.44089e-14 -2.18314e-14 0)
(4.44089e-14 -1.95563e-14 0)
(2.22045e-14 -1.92575e-14 0)
(0 -5.55302e-15 0)
(0 -4.12487e-15 0)
(2.22045e-14 -2.14329e-14 0)
(-2.22045e-14 2.35108e-15 0)
(0 1.33712e-14 0)
(0 4.54074e-15 0)
(2.22045e-14 1.1663e-14 0)
(-2.22045e-14 6.3924e-15 0)
(0 -1.94974e-15 0)
(2.22045e-14 -3.23299e-15 0)
(0 3.84769e-15 0)
(0 -2.66789e-15 0)
(4.44089e-14 5.21133e-14 0)
(6.66134e-14 1.03633e-15 0)
(2.22045e-14 1.06578e-14 0)
(6.66134e-14 -1.58889e-14 0)
(2.22045e-14 -4.27066e-14 0)
(2.22045e-14 -3.89563e-14 0)
(0 -8.10321e-15 0)
(-2.22045e-14 8.21753e-15 0)
(-4.44089e-14 2.5087e-15 0)
(0 -4.55507e-15 0)
(-2.22045e-14 -9.19126e-16 0)
(-2.22045e-14 1.21484e-14 0)
(-4.44089e-14 4.78913e-15 0)
(-4.44089e-14 1.04045e-14 0)
(0 1.1327e-14 0)
(0 1.92045e-15 0)
(4.44089e-14 -1.4488e-14 0)
(2.22045e-14 -4.50584e-15 0)
(-2.22045e-14 -2.66171e-15 0)
(-2.22045e-14 -4.64025e-15 0)
(0 9.04556e-14 0)
(0 -1.9593e-14 0)
(4.44089e-14 1.28059e-14 0)
(0 -8.15477e-15 0)
(4.44089e-14 -1.45522e-14 0)
(-4.44089e-14 -2.84911e-14 0)
(0 -8.59158e-15 0)
(0 1.1594e-14 0)
(0 1.01087e-14 0)
(0 1.92113e-15 0)
(0 2.07301e-14 0)
(4.44089e-14 9.87279e-15 0)
(2.22045e-14 -1.39948e-15 0)
(0 7.23032e-15 0)
(2.22045e-14 -1.0068e-14 0)
(2.22045e-14 -2.48556e-14 0)
(0 -1.82966e-14 0)
(0 7.66748e-15 0)
(-4.44089e-14 2.59157e-15 0)
(0 -4.24724e-15 0)
(4.44089e-14 -6.74279e-14 0)
(0 2.41625e-14 0)
(-2.22045e-14 -1.58018e-14 0)
(0 -1.62844e-14 0)
(-4.44089e-14 -1.17774e-14 0)
(0 -8.21555e-15 0)
(0 -1.25865e-15 0)
(-4.44089e-14 8.646e-15 0)
(0 1.74526e-14 0)
(0 1.58739e-14 0)
(0 1.22815e-14 0)
(0 -1.30152e-14 0)
(0 -1.79951e-14 0)
(0 -5.52547e-15 0)
(4.44089e-14 -6.07532e-15 0)
(6.66134e-14 -8.51332e-15 0)
(-2.22045e-14 2.23705e-15 0)
(0 4.06816e-15 0)
(0 -7.08298e-16 0)
(0 -2.81542e-15 0)
(-4.44089e-14 8.93825e-15 0)
(4.44089e-14 1.75013e-14 0)
(2.22045e-14 -6.33205e-15 0)
(0 -1.42517e-14 0)
(4.44089e-14 -6.77681e-15 0)
(2.22045e-14 7.4012e-15 0)
(2.22045e-14 6.53785e-15 0)
(0 1.61152e-15 0)
(-2.22045e-14 1.65007e-15 0)
(4.44089e-14 6.35763e-15 0)
(2.22045e-14 1.75548e-15 0)
(2.22045e-14 -9.66453e-15 0)
(-2.22045e-14 -1.22853e-14 0)
(-2.22045e-14 -7.19543e-15 0)
(-4.44089e-14 -4.43027e-15 0)
(0 1.00839e-15 0)
(-6.66134e-14 1.13283e-14 0)
(4.44089e-14 1.01151e-16 0)
(2.22045e-14 -2.69246e-15 0)
(-2.22045e-14 -3.42204e-15 0)
)
;

boundaryField
{
    movingWall
    {
        type            calculated;
        value           uniform (0 0 0);
    }
    fixedWalls
    {
        type            calculated;
        value           uniform (0 0 0);
    }
    frontAndBack
    {
        type            empty;
    }
}


// ************************************************************************* //
