/*--------------------------------*- C++ -*----------------------------------*\
| =========                 |                                                 |
| \\      /  F ield         | OpenFOAM: The Open Source CFD Toolbox           |
|  \\    /   O peration     | Version:  2506                                  |
|   \\  /    A nd           | Website:  www.openfoam.com                      |
|    \\/     M anipulation  |                                                 |
\*---------------------------------------------------------------------------*/
FoamFile
{
    version     2.0;
    format      ascii;
    arch        "LSB;label=32;scalar=64";
    class       volVectorField;
    location    "6";
    object      diffU;
}
// * * * * * * * * * * * * * * * * * * * * * * * * * * * * * * * * * * * * * //

dimensions      [0 1 -1 0 0 0 0];

internalField   nonuniform List<vector> 
400
(
(0 0 0)
(1.73195e-14 -1.37389e-13 0)
(1.35447e-14 -1.07696e-13 0)
(1.32117e-14 -1.14542e-13 0)
(1.36557e-14 -1.13117e-13 0)
(1.33227e-14 -1.13376e-13 0)
(1.32117e-14 -1.13259e-13 0)
(1.29896e-14 -1.1331e-13 0)
(1.28786e-14 -1.13378e-13 0)
(1.26565e-14 -1.13447e-13 0)
(1.28786e-14 -1.13433e-13 0)
(1.26565e-14 -1.13451e-13 0)
(1.28786e-14 -1.13491e-13 0)
(1.26565e-14 -1.13492e-13 0)
(1.28786e-14 -1.13468e-13 0)
(1.28786e-14 -1.13454e-13 0)
(1.24345e-14 -1.13551e-13 0)
(1.28786e-14 -1.13562e-13 0)
(1.29896e-14 -1.13422e-13 0)
(1.28786e-14 -1.13486e-13 0)
(3.41949e-14 -8.38724e-14 0)
(6.66134e-15 -1.19723e-13 0)
(1.24345e-14 -1.11716e-13 0)
(1.22125e-14 -1.13763e-13 0)
(1.24345e-14 -1.13511e-13 0)
(1.26565e-14 -1.13577e-13 0)
(1.28786e-14 -1.13427e-13 0)
(1.31006e-14 -1.13338e-13 0)
(1.32117e-14 -1.13292e-13 0)
(1.31006e-14 -1.13383e-13 0)
(1.31006e-14 -1.13416e-13 0)
(1.29896e-14 -1.13463e-13 0)
(1.32117e-14 -1.13557e-13 0)
(1.28786e-14 -1.13524e-13 0)
(1.31006e-14 -1.13404e-13 0)
(1.29896e-14 -1.13324e-13 0)
(1.32117e-14 -1.13428e-13 0)
(1.28786e-14 -1.13496e-13 0)
(1.26565e-14 -1.13492e-13 0)
(1.26565e-14 -1.13561e-13 0)
(1.06581e-14 -2.37628e-13 0)
(1.33227e-14 -8.64462e-14 0)
(1.28786e-14 -1.19918e-13 0)
(1.29896e-14 -1.12155e-13 0)
(1.29896e-14 -1.13847e-13 0)
(1.26565e-14 -1.1347e-13 0)
(1.24345e-14 -1.13546e-13 0)
(1.24345e-14 -1.13488e-13 0)
(1.26565e-14 -1.13399e-13 0)
(1.26565e-14 -1.13415e-13 0)
(1.26565e-14 -1.13441e-13 0)
(1.26565e-14 -1.13436e-13 0)
(1.24345e-14 -1.13432e-13 0)
(1.24345e-14 -1.13404e-13 0)
(1.24345e-14 -1.13346e-13 0)
(1.24345e-14 -1.13333e-13 0)
(1.24345e-14 -1.13409e-13 0)
(1.26565e-14 -1.13517e-13 0)
(1.29896e-14 -1.13597e-13 0)
(1.29896e-14 -1.13591e-13 0)
(-5.55112e-15 -3.35469e-14 0)
(1.80966e-14 -1.30674e-13 0)
(1.22125e-14 -1.09516e-13 0)
(1.29896e-14 -1.14287e-13 0)
(1.24345e-14 -1.13089e-13 0)
(1.24345e-14 -1.13314e-13 0)
(1.24345e-14 -1.13418e-13 0)
(1.24345e-14 -1.13495e-13 0)
(1.24345e-14 -1.13473e-13 0)
(1.28786e-14 -1.13415e-13 0)
(1.24345e-14 -1.13469e-13 0)
(1.24345e-14 -1.13445e-13 0)
(1.26565e-14 -1.13361e-13 0)
(1.24345e-14 -1.13388e-13 0)
(1.24345e-14 -1.13497e-13 0)
(1.26565e-14 -1.13577e-13 0)
(1.29896e-14 -1.13533e-13 0)
(1.28786e-14 -1.13602e-13 0)
(1.28786e-14 -1.13614e-13 0)
(1.29896e-14 -1.13551e-13 0)
(2.35367e-14 -1.14046e-13 0)
(8.88178e-15 -1.13827e-13 0)
(1.22125e-14 -1.13336e-13 0)
(1.26565e-14 -1.13532e-13 0)
(1.31006e-14 -1.13444e-13 0)
(1.33227e-14 -1.13427e-13 0)
(1.34337e-14 -1.13497e-13 0)
(1.33227e-14 -1.13506e-13 0)
(1.32117e-14 -1.13503e-13 0)
(1.34337e-14 -1.134e-13 0)
(1.34337e-14 -1.13438e-13 0)
(1.31006e-14 -1.1337e-13 0)
(1.29896e-14 -1.13372e-13 0)
(1.29896e-14 -1.13483e-13 0)
(1.32117e-14 -1.1358e-13 0)
(1.28786e-14 -1.13644e-13 0)
(1.29896e-14 -1.13562e-13 0)
(1.31006e-14 -1.13538e-13 0)
(1.31006e-14 -1.13551e-13 0)
(1.29896e-14 -1.13481e-13 0)
(1.4988e-14 -1.81697e-13 0)
(1.37668e-14 -9.89449e-14 0)
(1.44329e-14 -1.16897e-13 0)
(1.33227e-14 -1.12836e-13 0)
(1.34337e-14 -1.13702e-13 0)
(1.32117e-14 -1.13477e-13 0)
(1.32117e-14 -1.1349e-13 0)
(1.32117e-14 -1.13475e-13 0)
(1.29896e-14 -1.13559e-13 0)
(1.31006e-14 -1.13549e-13 0)
(1.29896e-14 -1.13387e-13 0)
(1.31006e-14 -1.13202e-13 0)
(1.32117e-14 -1.13212e-13 0)
(1.33227e-14 -1.13435e-13 0)
(1.29896e-14 -1.1354e-13 0)
(1.31006e-14 -1.13577e-13 0)
(1.28786e-14 -1.13609e-13 0)
(1.28786e-14 -1.13536e-13 0)
(1.28786e-14 -1.13439e-13 0)
(1.28786e-14 -1.13447e-13 0)
(1.15463e-14 -2.82027e-14 0)
(1.39888e-14 -1.30666e-13 0)
(1.31006e-14 -1.09279e-13 0)
(1.29896e-14 -1.14255e-13 0)
(1.29896e-14 -1.13226e-13 0)
(1.29896e-14 -1.13475e-13 0)
(1.31006e-14 -1.13446e-13 0)
(1.29896e-14 -1.13342e-13 0)
(1.28786e-14 -1.13254e-13 0)
(1.28786e-14 -1.13288e-13 0)
(1.24345e-14 -1.13265e-13 0)
(1.24345e-14 -1.1342e-13 0)
(1.29896e-14 -1.13557e-13 0)
(1.31006e-14 -1.13622e-13 0)
(1.32117e-14 -1.13564e-13 0)
(1.31006e-14 -1.13422e-13 0)
(1.33227e-14 -1.13365e-13 0)
(1.28786e-14 -1.13361e-13 0)
(1.28786e-14 -1.1343e-13 0)
(1.29896e-14 -1.13474e-13 0)
(1.11022e-14 -1.39836e-13 0)
(1.19904e-14 -1.07972e-13 0)
(1.17684e-14 -1.14553e-13 0)
(1.28786e-14 -1.1309e-13 0)
(1.22125e-14 -1.13382e-13 0)
(1.24345e-14 -1.13391e-13 0)
(1.22125e-14 -1.13401e-13 0)
(1.22125e-14 -1.13358e-13 0)
(1.22125e-14 -1.13304e-13 0)
(1.24345e-14 -1.13351e-13 0)
(1.28786e-14 -1.13502e-13 0)
(1.28786e-14 -1.13726e-13 0)
(1.31006e-14 -1.13688e-13 0)
(1.28786e-14 -1.13478e-13 0)
(1.26565e-14 -1.13443e-13 0)
(1.24345e-14 -1.13415e-13 0)
(1.24345e-14 -1.13423e-13 0)
(1.26565e-14 -1.13444e-13 0)
(1.28786e-14 -1.13421e-13 0)
(1.28786e-14 -1.13462e-13 0)
(1.70974e-14 -1.57996e-13 0)
(1.28786e-14 -1.0432e-13 0)
(1.40998e-14 -1.15555e-13 0)
(1.26565e-14 -1.12901e-13 0)
(1.31006e-14 -1.13497e-13 0)
(1.31006e-14 -1.13414e-13 0)
(1.29896e-14 -1.13395e-13 0)
(1.31006e-14 -1.13444e-13 0)
(1.31006e-14 -1.13527e-13 0)
(1.31006e-14 -1.13534e-13 0)
(1.33227e-14 -1.13624e-13 0)
(1.31006e-14 -1.13572e-13 0)
(1.28786e-14 -1.13448e-13 0)
(1.28786e-14 -1.13339e-13 0)
(1.32117e-14 -1.13372e-13 0)
(1.31006e-14 -1.13415e-13 0)
(1.31006e-14 -1.13473e-13 0)
(1.31006e-14 -1.13464e-13 0)
(1.29896e-14 -1.13394e-13 0)
(1.28786e-14 -1.1345e-13 0)
(1.29896e-14 -4.26721e-14 0)
(1.26565e-14 -1.28019e-13 0)
(1.29896e-14 -1.1014e-13 0)
(1.31006e-14 -1.1405e-13 0)
(1.31006e-14 -1.13196e-13 0)
(1.29896e-14 -1.1327e-13 0)
(1.26565e-14 -1.13275e-13 0)
(1.29896e-14 -1.13455e-13 0)
(1.29896e-14 -1.13533e-13 0)
(1.28786e-14 -1.13446e-13 0)
(1.26565e-14 -1.13477e-13 0)
(1.24345e-14 -1.13573e-13 0)
(1.28786e-14 -1.13605e-13 0)
(1.26565e-14 -1.13605e-13 0)
(1.24345e-14 -1.13467e-13 0)
(1.24345e-14 -1.13362e-13 0)
(1.26565e-14 -1.13354e-13 0)
(1.24345e-14 -1.13445e-13 0)
(1.29896e-14 -1.13511e-13 0)
(1.28786e-14 -1.13482e-13 0)
(5.10703e-15 -1.78839e-13 0)
(1.4766e-14 -9.97226e-14 0)
(1.22125e-14 -1.16537e-13 0)
(1.33227e-14 -1.12691e-13 0)
(1.33227e-14 -1.1349e-13 0)
(1.34337e-14 -1.13391e-13 0)
(1.35447e-14 -1.13431e-13 0)
(1.36557e-14 -1.13443e-13 0)
(1.35447e-14 -1.13414e-13 0)
(1.31006e-14 -1.1337e-13 0)
(1.34337e-14 -1.13361e-13 0)
(1.33227e-14 -1.13531e-13 0)
(1.33227e-14 -1.13546e-13 0)
(1.33227e-14 -1.13408e-13 0)
(1.29896e-14 -1.133e-13 0)
(1.29896e-14 -1.13403e-13 0)
(1.29896e-14 -1.13494e-13 0)
(1.31006e-14 -1.13517e-13 0)
(1.29896e-14 -1.13493e-13 0)
(1.29896e-14 -1.1347e-13 0)
(2.40918e-14 -7.84106e-14 0)
(1.11022e-14 -1.20723e-13 0)
(1.36557e-14 -1.11575e-13 0)
(1.15463e-14 -1.13759e-13 0)
(1.26565e-14 -1.134e-13 0)
(1.22125e-14 -1.13532e-13 0)
(1.22125e-14 -1.13434e-13 0)
(1.17684e-14 -1.13432e-13 0)
(1.17684e-14 -1.13438e-13 0)
(1.22125e-14 -1.13485e-13 0)
(1.22125e-14 -1.13511e-13 0)
(1.26565e-14 -1.13488e-13 0)
(1.26565e-14 -1.13485e-13 0)
(1.22125e-14 -1.13381e-13 0)
(1.26565e-14 -1.13331e-13 0)
(1.26565e-14 -1.13439e-13 0)
(1.29896e-14 -1.13477e-13 0)
(1.26565e-14 -1.13389e-13 0)
(1.28786e-14 -1.1338e-13 0)
(1.29896e-14 -1.13407e-13 0)
(-1.11022e-15 -9.92049e-14 0)
(1.42109e-14 -1.16136e-13 0)
(1.11022e-14 -1.12682e-13 0)
(1.26565e-14 -1.13679e-13 0)
(1.22125e-14 -1.13491e-13 0)
(1.24345e-14 -1.13374e-13 0)
(1.26565e-14 -1.13317e-13 0)
(1.28786e-14 -1.13349e-13 0)
(1.26565e-14 -1.13519e-13 0)
(1.24345e-14 -1.1373e-13 0)
(1.28786e-14 -1.13755e-13 0)
(1.24345e-14 -1.13584e-13 0)
(1.26565e-14 -1.13457e-13 0)
(1.22125e-14 -1.1349e-13 0)
(1.22125e-14 -1.13599e-13 0)
(1.24345e-14 -1.1354e-13 0)
(1.24345e-14 -1.13511e-13 0)
(1.26565e-14 -1.13526e-13 0)
(1.24345e-14 -1.13586e-13 0)
(1.28786e-14 -1.1352e-13 0)
(1.93179e-14 -1.73498e-13 0)
(1.17684e-14 -1.00752e-13 0)
(1.37668e-14 -1.1636e-13 0)
(1.24345e-14 -1.12845e-13 0)
(1.28786e-14 -1.13619e-13 0)
(1.24345e-14 -1.13489e-13 0)
(1.24345e-14 -1.13634e-13 0)
(1.28786e-14 -1.13564e-13 0)
(1.29896e-14 -1.13528e-13 0)
(1.31006e-14 -1.13577e-13 0)
(1.32117e-14 -1.13469e-13 0)
(1.28786e-14 -1.13445e-13 0)
(1.26565e-14 -1.13507e-13 0)
(1.31006e-14 -1.1354e-13 0)
(1.34337e-14 -1.13524e-13 0)
(1.32117e-14 -1.13431e-13 0)
(1.32117e-14 -1.1346e-13 0)
(1.32117e-14 -1.13571e-13 0)
(1.29896e-14 -1.13675e-13 0)
(1.29896e-14 -1.13616e-13 0)
(7.54952e-15 -3.60402e-14 0)
(1.42109e-14 -1.30083e-13 0)
(1.26565e-14 -1.09604e-13 0)
(1.33227e-14 -1.14232e-13 0)
(1.33227e-14 -1.13206e-13 0)
(1.32117e-14 -1.13393e-13 0)
(1.34337e-14 -1.1349e-13 0)
(1.29896e-14 -1.13676e-13 0)
(1.29896e-14 -1.13635e-13 0)
(1.26565e-14 -1.13529e-13 0)
(1.29896e-14 -1.13472e-13 0)
(1.29896e-14 -1.13506e-13 0)
(1.31006e-14 -1.13542e-13 0)
(1.26565e-14 -1.13556e-13 0)
(1.26565e-14 -1.1348e-13 0)
(1.28786e-14 -1.13503e-13 0)
(1.29896e-14 -1.13469e-13 0)
(1.28786e-14 -1.13487e-13 0)
(1.29896e-14 -1.13498e-13 0)
(1.29896e-14 -1.13529e-13 0)
(2.15383e-14 -1.67069e-13 0)
(9.76996e-15 -1.02001e-13 0)
(1.26565e-14 -1.16081e-13 0)
(1.24345e-14 -1.12945e-13 0)
(1.24345e-14 -1.13718e-13 0)
(1.26565e-14 -1.13573e-13 0)
(1.28786e-14 -1.1358e-13 0)
(1.32117e-14 -1.13626e-13 0)
(1.29896e-14 -1.13589e-13 0)
(1.29896e-14 -1.13547e-13 0)
(1.31006e-14 -1.13636e-13 0)
(1.32117e-14 -1.13519e-13 0)
(1.31006e-14 -1.13366e-13 0)
(1.29896e-14 -1.13409e-13 0)
(1.31006e-14 -1.13474e-13 0)
(1.31006e-14 -1.13496e-13 0)
(1.29896e-14 -1.13502e-13 0)
(1.29896e-14 -1.13475e-13 0)
(1.28786e-14 -1.13434e-13 0)
(1.28786e-14 -1.1349e-13 0)
(3.9968e-15 -1.25399e-13 0)
(1.64313e-14 -1.10437e-13 0)
(1.35447e-14 -1.1412e-13 0)
(1.34337e-14 -1.13351e-13 0)
(1.33227e-14 -1.13732e-13 0)
(1.32117e-14 -1.13803e-13 0)
(1.32117e-14 -1.13753e-13 0)
(1.32117e-14 -1.13561e-13 0)
(1.31006e-14 -1.13489e-13 0)
(1.31006e-14 -1.13521e-13 0)
(1.29896e-14 -1.13582e-13 0)
(1.28786e-14 -1.13439e-13 0)
(1.26565e-14 -1.13362e-13 0)
(1.26565e-14 -1.1343e-13 0)
(1.26565e-14 -1.13429e-13 0)
(1.26565e-14 -1.13412e-13 0)
(1.28786e-14 -1.13466e-13 0)
(1.29896e-14 -1.13442e-13 0)
(1.28786e-14 -1.13452e-13 0)
(1.28786e-14 -1.13501e-13 0)
(3.77476e-15 -3.11075e-14 0)
(1.42109e-14 -1.30865e-13 0)
(1.17684e-14 -1.09445e-13 0)
(1.28786e-14 -1.14363e-13 0)
(1.26565e-14 -1.13286e-13 0)
(1.26565e-14 -1.13617e-13 0)
(1.24345e-14 -1.13623e-13 0)
(1.24345e-14 -1.13563e-13 0)
(1.24345e-14 -1.13505e-13 0)
(1.29896e-14 -1.13518e-13 0)
(1.26565e-14 -1.13442e-13 0)
(1.26565e-14 -1.13395e-13 0)
(1.31006e-14 -1.1341e-13 0)
(1.29896e-14 -1.13373e-13 0)
(1.29896e-14 -1.13393e-13 0)
(1.29896e-14 -1.13497e-13 0)
(1.28786e-14 -1.13568e-13 0)
(1.26565e-14 -1.13485e-13 0)
(1.28786e-14 -1.13456e-13 0)
(1.29896e-14 -1.1345e-13 0)
(3.40838e-14 -1.48838e-13 0)
(7.54952e-15 -1.06824e-13 0)
(1.32117e-14 -1.15137e-13 0)
(1.22125e-14 -1.13259e-13 0)
(1.24345e-14 -1.13585e-13 0)
(1.26565e-14 -1.1363e-13 0)
(1.26565e-14 -1.13724e-13 0)
(1.26565e-14 -1.13726e-13 0)
(1.26565e-14 -1.1362e-13 0)
(1.26565e-14 -1.13536e-13 0)
(1.28786e-14 -1.13367e-13 0)
(1.24345e-14 -1.13414e-13 0)
(1.22125e-14 -1.13542e-13 0)
(1.26565e-14 -1.1351e-13 0)
(1.26565e-14 -1.13493e-13 0)
(1.29896e-14 -1.13537e-13 0)
(1.28786e-14 -1.13531e-13 0)
(1.26565e-14 -1.13508e-13 0)
(1.28786e-14 -1.13504e-13 0)
(1.28786e-14 -1.13452e-13 0)
(5.55112e-15 -1.95107e-13 0)
(1.58762e-14 -9.6054e-14 0)
(1.42109e-14 -1.176e-13 0)
(1.38778e-14 -1.12648e-13 0)
(1.38778e-14 -1.1373e-13 0)
(1.38778e-14 -1.13508e-13 0)
(1.35447e-14 -1.1357e-13 0)
(1.35447e-14 -1.13534e-13 0)
(1.32117e-14 -1.13514e-13 0)
(1.33227e-14 -1.13501e-13 0)
(1.31006e-14 -1.13434e-13 0)
(1.33227e-14 -1.13469e-13 0)
(1.33227e-14 -1.1356e-13 0)
(1.31006e-14 -1.13601e-13 0)
(1.29896e-14 -1.13556e-13 0)
(1.31006e-14 -1.13545e-13 0)
(1.28786e-14 -1.13479e-13 0)
(1.28786e-14 -1.13481e-13 0)
(1.29896e-14 -1.13503e-13 0)
(1.29896e-14 -1.13486e-13 0)
)
;

boundaryField
{
    movingWall
    {
        type            calculated;
        value           uniform (1.28786e-14 -1.13469e-13 0);
    }
    fixedWalls
    {
        type            calculated;
        value           uniform (1.28786e-14 -1.13469e-13 0);
    }
    frontAndBack
    {
        type            empty;
    }
}


// ************************************************************************* //
