/*--------------------------------*- C++ -*----------------------------------*\
| =========                 |                                                 |
| \\      /  F ield         | OpenFOAM: The Open Source CFD Toolbox           |
|  \\    /   O peration     | Version:  2506                                  |
|   \\  /    A nd           | Website:  www.openfoam.com                      |
|    \\/     M anipulation  |                                                 |
\*---------------------------------------------------------------------------*/
FoamFile
{
    version     2.0;
    format      ascii;
    arch        "LSB;label=32;scalar=64";
    class       volScalarField;
    location    "6";
    object      divPhi;
}
// * * * * * * * * * * * * * * * * * * * * * * * * * * * * * * * * * * * * * //

dimensions      [0 0 -1 0 0 0 0];

internalField   nonuniform List<scalar> 
400
(
-2.71051e-14
1.42617e-14
-2.05268e-14
1.61721e-14
1.09786e-15
7.45449e-15
-1.4579e-14
4.34316e-15
-2.23968e-15
9.17254e-15
-1.65177e-14
1.00321e-14
-8.2531e-15
-7.25232e-15
1.07802e-14
-4.15019e-15
-4.96112e-15
2.14905e-14
-4.66837e-16
0
2.71051e-14
-1.08797e-14
1.07274e-14
-4.91556e-15
-9.41863e-15
-7.32072e-16
6.95108e-15
5.87639e-15
-3.50738e-15
1.37095e-14
1.17139e-14
7.66543e-15
-4.78876e-15
-9.67041e-16
-1.65073e-14
2.09306e-14
-1.22406e-14
-1.06176e-14
-1.02767e-14
0
0
-3.06296e-14
3.3959e-14
1.13443e-15
-4.42243e-15
-2.15924e-15
1.40919e-15
-4.371e-15
1.61988e-14
-1.17532e-14
-7.02822e-16
3.67829e-15
-1.00085e-14
5.57483e-15
9.6026e-15
-7.55895e-15
3.52398e-15
-3.61334e-15
1.9114e-15
-2.71051e-14
0
1.86791e-15
-1.18079e-14
1.46271e-14
-1.30403e-14
2.1705e-14
-2.59641e-14
-6.88281e-15
-9.57229e-15
-1.19381e-14
-2.29846e-14
1.97247e-15
1.0851e-14
-2.14539e-15
2.02422e-14
-2.2564e-14
8.88422e-15
-7.09729e-15
1.80961e-15
0
0
1.0944e-14
-1.66979e-14
7.6489e-15
-2.74575e-14
-4.70941e-16
1.94459e-15
-3.6841e-17
-1.81559e-14
-3.20548e-15
-1.27304e-14
2.10856e-14
1.50805e-14
-9.42478e-15
-1.84121e-14
1.04027e-14
-3.49163e-15
3.81568e-15
-6.61273e-15
0
2.71051e-14
1.83002e-14
2.51116e-14
1.53539e-15
1.50662e-14
3.15955e-15
-2.50673e-14
1.56931e-14
1.27084e-14
-6.14018e-15
8.93636e-15
-2.85443e-14
-1.24396e-15
-3.10034e-14
1.04122e-14
-4.33122e-15
3.33199e-15
2.24913e-14
-1.98833e-14
2.71051e-14
0
-1.57025e-14
-7.52262e-15
1.24569e-14
-1.55186e-14
-2.15253e-15
-8.92408e-15
-1.50448e-14
-1.76732e-15
2.22578e-14
1.51693e-14
-1.20536e-14
1.09271e-14
-4.33407e-15
1.59425e-14
2.51497e-15
1.0537e-14
-1.94278e-14
1.00662e-14
0
0
2.42883e-14
-1.62645e-14
2.67799e-14
3.63133e-15
-8.65349e-15
-2.45626e-14
2.33749e-14
3.39194e-15
-5.24621e-17
1.93045e-15
-2.12927e-14
-1.68052e-14
3.06459e-14
-9.43017e-15
-1.30297e-14
3.56853e-14
1.1847e-14
5.03225e-15
0
0
3.21452e-15
2.74428e-14
-5.16412e-15
1.03625e-14
-2.58536e-14
8.9276e-16
-2.18492e-14
1.23984e-14
-3.5814e-15
-4.32848e-16
1.60546e-14
-9.10376e-15
1.73563e-14
-2.3723e-14
-6.73983e-15
9.67397e-15
1.35314e-14
-6.77344e-15
0
-2.71051e-14
7.63494e-15
-2.30599e-15
3.39868e-15
5.96086e-16
-1.98612e-14
2.59844e-15
2.35701e-15
2.07161e-14
9.39411e-15
-2.87827e-14
1.73291e-15
-2.23243e-14
-4.48159e-15
1.44402e-14
-2.02999e-14
9.15914e-15
-6.39836e-15
-1.98505e-14
0
2.71051e-14
2.23306e-14
-3.65456e-14
8.80204e-15
-1.10376e-14
-1.11769e-14
-1.60377e-14
2.92934e-16
-3.66908e-15
-1.23866e-14
-2.23365e-14
3.28658e-14
1.17919e-14
-1.87675e-14
-7.59482e-15
2.48255e-14
2.55296e-14
-2.53225e-14
1.07703e-14
2.71051e-14
0
-2.05998e-14
-3.98363e-15
8.33888e-15
-3.75611e-14
9.36031e-15
1.25613e-14
-1.07929e-14
8.85371e-15
-3.11104e-14
-1.41231e-14
-4.13005e-16
3.17913e-14
-2.21873e-14
-1.08088e-14
1.10829e-14
-1.0521e-14
6.81012e-16
-1.84515e-15
2.71051e-14
0
9.48948e-15
-2.57012e-14
1.67799e-14
-8.85324e-15
5.60445e-15
2.4149e-14
-6.52312e-15
7.79723e-15
-6.3903e-15
-5.06966e-16
1.51841e-14
-2.65034e-15
-1.91964e-14
8.96481e-15
2.44465e-14
-5.27752e-16
-1.1424e-14
-1.0335e-14
-2.71051e-14
2.71051e-14
-5.03655e-15
2.31622e-15
-1.35709e-14
-1.24069e-14
9.49992e-15
-4.49421e-15
-2.5566e-14
1.67361e-14
-1.80247e-15
7.32858e-15
-9.4507e-15
-1.25082e-14
2.00378e-14
2.05987e-14
8.99498e-15
6.03236e-15
-3.31157e-14
5.29612e-15
0
-2.71051e-14
-1.83425e-14
1.82184e-14
2.81816e-14
-3.80404e-14
1.33361e-16
4.00617e-15
1.89927e-15
-2.43817e-14
-6.72029e-15
9.72778e-15
-1.56941e-14
-2.03836e-14
4.16153e-15
3.00448e-15
8.77078e-15
1.43874e-14
-1.3289e-14
3.46188e-15
2.71051e-14
2.71051e-14
-8.07724e-15
-2.84058e-14
1.73815e-14
-1.34138e-14
-2.78122e-14
3.89376e-15
2.29836e-14
-1.52095e-14
-1.33768e-14
1.55043e-14
1.53144e-14
1.59432e-14
1.338e-14
-9.15342e-16
1.92271e-14
-1.50552e-14
7.03747e-15
3.84077e-15
0
0
4.01436e-15
-5.66983e-15
2.91386e-15
-1.82406e-14
-2.0804e-14
1.95733e-15
1.08007e-14
2.63321e-14
-2.82984e-14
2.02046e-14
-3.54991e-14
-2.26286e-14
4.05793e-14
-1.46879e-14
-1.0311e-14
2.19929e-15
-9.47799e-16
7.86208e-15
0
2.71051e-14
2.31848e-14
-2.05989e-14
1.0098e-14
1.05259e-14
-5.09057e-17
2.53789e-14
-7.39862e-15
3.86208e-15
7.96442e-15
2.25623e-14
-1.83008e-14
9.31435e-15
8.06083e-15
1.08508e-14
-2.90058e-14
1.70535e-14
-7.69802e-15
1.73585e-14
-2.71051e-14
-2.71051e-14
3.44975e-16
2.51869e-14
7.2891e-16
2.16092e-14
-1.60606e-14
1.69664e-14
-5.05142e-15
9.13709e-15
1.3523e-14
-1.93687e-14
1.05322e-14
1.59625e-14
1.93055e-15
-1.60164e-14
6.85852e-15
-7.92185e-15
2.71827e-15
-2.94202e-14
2.71051e-14
0
0
0
0
0
0
0
-2.71051e-14
2.71051e-14
0
0
2.71051e-14
-2.71051e-14
2.71051e-14
2.71051e-14
-2.71051e-14
0
0
0
0
)
;

boundaryField
{
    movingWall
    {
        type            extrapolatedCalculated;
        value           nonuniform List<scalar> 
20
(
0
0
0
0
0
0
0
-2.71051e-14
2.71051e-14
0
0
2.71051e-14
-2.71051e-14
2.71051e-14
2.71051e-14
-2.71051e-14
0
0
0
0
)
;
    }
    fixedWalls
    {
        type            extrapolatedCalculated;
        value           nonuniform List<scalar> 
60
(
-2.71051e-14
2.71051e-14
0
0
0
2.71051e-14
0
0
0
-2.71051e-14
2.71051e-14
0
0
2.71051e-14
-2.71051e-14
2.71051e-14
0
2.71051e-14
-2.71051e-14
0
0
0
-2.71051e-14
0
0
2.71051e-14
0
0
0
0
2.71051e-14
2.71051e-14
-2.71051e-14
0
2.71051e-14
0
0
-2.71051e-14
2.71051e-14
0
-2.71051e-14
1.42617e-14
-2.05268e-14
1.61721e-14
1.09786e-15
7.45449e-15
-1.4579e-14
4.34316e-15
-2.23968e-15
9.17254e-15
-1.65177e-14
1.00321e-14
-8.2531e-15
-7.25232e-15
1.07802e-14
-4.15019e-15
-4.96112e-15
2.14905e-14
-4.66837e-16
0
)
;
    }
    frontAndBack
    {
        type            empty;
    }
}


// ************************************************************************* //
