/*--------------------------------*- C++ -*----------------------------------*\
| =========                 |                                                 |
| \\      /  F ield         | OpenFOAM: The Open Source CFD Toolbox           |
|  \\    /   O peration     | Version:  2506                                  |
|   \\  /    A nd           | Website:  www.openfoam.com                      |
|    \\/     M anipulation  |                                                 |
\*---------------------------------------------------------------------------*/
FoamFile
{
    version     2.0;
    format      ascii;
    arch        "LSB;label=32;scalar=64";
    class       volScalarField;
    location    "6";
    object      divU;
}
// * * * * * * * * * * * * * * * * * * * * * * * * * * * * * * * * * * * * * //

dimensions      [0 0 -1 0 0 0 0];

internalField   nonuniform List<scalar> 
400
(
1.34712e-11
-1.66208e-12
3.19013e-13
-1.09543e-13
3.1101e-14
-2.85467e-14
-1.86686e-15
1.98403e-15
-2.57128e-16
-4.33275e-14
6.31198e-14
2.45347e-15
-6.51801e-14
4.65429e-14
6.69593e-15
-3.81494e-14
-4.01214e-15
4.23528e-14
2.54279e-15
0
-2.22261e-11
2.89011e-12
-6.86356e-13
2.91831e-13
-4.19117e-14
-1.08735e-14
5.07734e-14
1.13295e-14
-2.31513e-15
1.40535e-14
8.14227e-15
4.03004e-15
-5.07153e-15
-2.59983e-14
4.60477e-14
1.0877e-15
-1.6946e-14
-8.87069e-14
-1.49616e-14
2.71051e-14
4.8518e-12
-8.61262e-13
1.57098e-13
-3.16291e-14
2.73286e-14
-6.58588e-14
-2.49257e-15
-4.45436e-15
6.70986e-15
-1.62391e-14
2.85518e-15
5.87441e-15
-1.25858e-14
1.4674e-14
-1.74545e-14
-2.42005e-14
2.67653e-14
3.61883e-14
2.70146e-14
-2.71051e-14
1.10047e-11
-9.4309e-13
1.37624e-13
-1.42269e-13
1.34266e-14
-7.3788e-15
2.44422e-15
-6.22078e-15
2.34469e-14
1.23564e-14
-2.3973e-14
1.24458e-14
2.05268e-14
-4.73866e-14
-1.37352e-14
5.30737e-14
1.15033e-14
-2.00583e-14
3.16018e-14
0
-1.41759e-11
2.01298e-12
-3.2939e-13
2.1968e-13
6.32959e-15
3.39859e-15
2.23793e-14
-3.12998e-14
-1.23016e-14
2.60327e-14
-1.57917e-14
9.57848e-15
-1.87109e-14
2.9229e-14
9.05564e-15
-5.53201e-14
5.81089e-14
1.36744e-14
2.19725e-14
-5.42101e-14
8.89046e-12
-1.73087e-12
3.47358e-13
-1.77858e-13
2.82047e-14
-2.84499e-14
3.69708e-16
1.21799e-14
-1.45022e-14
3.73035e-14
1.49402e-15
3.16974e-14
1.70478e-14
-3.89118e-14
1.05939e-14
-6.05165e-15
-3.46613e-15
4.1919e-15
6.93847e-15
0
4.11997e-12
-7.09084e-13
1.48049e-13
-4.06519e-14
3.30941e-14
3.43994e-14
-1.78708e-14
-3.24396e-15
3.81421e-14
-2.41896e-14
-3.70702e-14
-2.07283e-14
5.0743e-14
-1.61342e-14
2.02929e-14
1.01283e-14
1.51568e-14
-4.08455e-14
3.59169e-14
-2.71051e-14
-1.32544e-11
2.71152e-12
-5.60876e-13
2.03188e-13
-4.82784e-14
1.33905e-14
-3.98859e-14
-1.34337e-14
3.79495e-14
5.43479e-15
8.38996e-15
1.82402e-14
7.44385e-15
-4.19927e-14
-1.47516e-14
1.0822e-14
-2.28267e-14
8.43704e-14
1.24351e-14
0
1.01644e-11
-2.32899e-12
4.49585e-13
-1.90976e-13
7.87497e-14
2.54483e-14
-2.39282e-16
-2.30619e-14
-1.20904e-14
-4.06542e-15
1.09398e-14
-2.06359e-14
-1.14118e-14
5.37835e-14
9.97683e-15
1.61723e-14
1.11396e-14
-2.41294e-14
3.44379e-15
-2.71051e-14
-2.08709e-12
4.61822e-13
-8.22745e-14
4.68967e-14
-2.89618e-14
-2.64947e-14
-3.89074e-15
3.11914e-14
-2.79117e-14
1.22896e-14
-4.41198e-14
3.77065e-14
-2.12531e-14
-7.32979e-15
-9.82986e-15
1.7387e-14
9.07853e-15
-2.27307e-15
4.77425e-14
0
-4.14707e-12
1.43541e-12
-2.79936e-13
1.03164e-13
-2.22236e-14
1.58055e-15
7.39835e-15
3.3449e-14
-7.2611e-14
8.37177e-15
6.61829e-15
1.91344e-14
1.79166e-14
-1.20994e-14
-2.34174e-14
-1.74175e-14
2.38736e-14
-2.37806e-14
6.5826e-15
-2.71051e-14
8.91756e-12
-2.67244e-12
4.03786e-13
-2.39596e-13
1.13226e-13
-5.08984e-14
-3.53653e-14
-1.12949e-14
2.53275e-14
2.65667e-14
2.1491e-14
1.37947e-14
-2.73428e-14
-2.03223e-14
8.487e-16
5.02697e-14
-4.89638e-15
2.45408e-15
2.43882e-14
-2.71051e-14
-1.07607e-11
3.20069e-12
-6.16852e-13
2.04164e-13
-1.7057e-14
7.59275e-15
-1.17299e-15
2.96799e-14
-9.20327e-14
1.73591e-14
-1.35544e-15
-3.61176e-14
-2.52383e-15
-6.33339e-14
3.57962e-14
-3.11806e-15
-3.15459e-15
-1.58059e-14
-5.0492e-15
2.71051e-14
6.85758e-12
-1.93458e-12
3.68516e-13
-1.7642e-13
3.85165e-14
-2.14147e-14
8.60036e-15
5.11944e-14
4.74973e-15
1.03995e-14
-2.12156e-16
-2.82642e-14
-1.11008e-14
3.84535e-14
4.76889e-14
-2.66002e-14
1.01127e-15
1.51572e-14
-2.3319e-14
-2.71051e-14
2.43945e-13
3.79886e-13
-6.43279e-14
5.74847e-14
1.47265e-15
-2.68873e-15
-1.3165e-14
-3.6275e-14
-2.8465e-14
1.34484e-14
1.01554e-14
1.85535e-14
-5.1177e-14
-2.97608e-14
-1.51519e-15
4.82061e-14
-3.25895e-15
2.47927e-14
2.78853e-14
0
-8.40257e-12
1.12482e-12
-2.17721e-13
6.42939e-14
-5.11153e-14
3.76498e-14
1.48069e-14
2.30862e-15
-1.3843e-14
1.42671e-14
2.62558e-14
-1.8601e-15
2.10683e-14
-1.71146e-14
3.07345e-14
-2.40011e-14
-2.94476e-15
-2.48638e-14
5.32812e-15
0
1.30646e-11
-1.89707e-12
3.64517e-13
-1.58802e-13
1.91487e-14
-2.09845e-14
-1.66084e-14
8.57836e-15
2.16637e-14
-9.92007e-15
-3.56539e-14
1.05044e-14
-6.46197e-14
1.36324e-14
1.16947e-14
5.71685e-14
-9.50751e-15
1.22623e-15
3.07138e-15
0
-3.11708e-12
1.14757e-12
-2.52268e-13
1.4858e-13
-4.74868e-14
2.33503e-14
-1.37783e-14
-7.9002e-15
8.48471e-15
4.2712e-14
-4.118e-14
6.72212e-14
-1.30862e-15
-2.15334e-14
5.28539e-15
-3.66746e-14
-1.59937e-14
-5.42057e-15
2.50072e-14
-2.71051e-14
-1.47994e-11
1.40318e-12
-3.90098e-13
1.57439e-13
-1.05788e-14
7.15876e-15
1.8635e-14
-5.01061e-15
7.53002e-15
-9.81042e-15
1.38697e-14
-2.15018e-14
-1.62715e-14
9.84569e-15
4.32407e-14
-1.43145e-14
2.00529e-14
-4.97758e-15
-6.77828e-15
0
1.12757e-11
-1.54499e-12
3.79471e-13
-1.6263e-13
2.71051e-14
2.71051e-14
-2.71051e-14
-2.71051e-14
2.71051e-14
-2.71051e-14
-2.71051e-14
2.71051e-14
0
2.71051e-14
0
0
-2.71051e-14
2.71051e-14
0
-2.71051e-14
)
;

boundaryField
{
    movingWall
    {
        type            extrapolatedCalculated;
        value           nonuniform List<scalar> 
20
(
1.12757e-11
-1.54499e-12
3.79471e-13
-1.6263e-13
2.71051e-14
2.71051e-14
-2.71051e-14
-2.71051e-14
2.71051e-14
-2.71051e-14
-2.71051e-14
2.71051e-14
0
2.71051e-14
0
0
-2.71051e-14
2.71051e-14
0
-2.71051e-14
)
;
    }
    fixedWalls
    {
        type            extrapolatedCalculated;
        value           nonuniform List<scalar> 
60
(
1.34712e-11
-2.22261e-11
4.8518e-12
1.10047e-11
-1.41759e-11
8.89046e-12
4.11997e-12
-1.32544e-11
1.01644e-11
-2.08709e-12
-4.14707e-12
8.91756e-12
-1.07607e-11
6.85758e-12
2.43945e-13
-8.40257e-12
1.30646e-11
-3.11708e-12
-1.47994e-11
1.12757e-11
0
2.71051e-14
-2.71051e-14
0
-5.42101e-14
0
-2.71051e-14
0
-2.71051e-14
0
-2.71051e-14
-2.71051e-14
2.71051e-14
-2.71051e-14
0
0
0
-2.71051e-14
0
-2.71051e-14
1.34712e-11
-1.66208e-12
3.19013e-13
-1.09543e-13
3.1101e-14
-2.85467e-14
-1.86686e-15
1.98403e-15
-2.57128e-16
-4.33275e-14
6.31198e-14
2.45347e-15
-6.51801e-14
4.65429e-14
6.69593e-15
-3.81494e-14
-4.01214e-15
4.23528e-14
2.54279e-15
0
)
;
    }
    frontAndBack
    {
        type            empty;
    }
}


// ************************************************************************* //
