/*--------------------------------*- C++ -*----------------------------------*\
| =========                 |                                                 |
| \\      /  F ield         | OpenFOAM: The Open Source CFD Toolbox           |
|  \\    /   O peration     | Version:  2506                                  |
|   \\  /    A nd           | Website:  www.openfoam.com                      |
|    \\/     M anipulation  |                                                 |
\*---------------------------------------------------------------------------*/
FoamFile
{
    version     2.0;
    format      ascii;
    arch        "LSB;label=32;scalar=64";
    class       volScalarField;
    location    "6";
    object      dpdt2;
}
// * * * * * * * * * * * * * * * * * * * * * * * * * * * * * * * * * * * * * //

dimensions      [0 4 -6 0 0 0 0];

internalField   nonuniform List<scalar> 
400
(
2.98097e-27
7.17259e-27
3.56311e-26
3.06127e-26
2.30511e-26
3.90944e-26
4.09851e-26
5.2396e-26
4.89107e-26
4.21127e-26
7.535e-26
1.24357e-25
1.21977e-25
6.64025e-26
8.49706e-26
1.06655e-25
1.16754e-25
1.24146e-25
1.61745e-25
1.69139e-25
5.5165e-27
1.44135e-26
4.36592e-26
3.32021e-26
2.19545e-26
5.12342e-26
4.5512e-26
4.71227e-26
5.30836e-26
5.25165e-26
6.62122e-26
1.00086e-25
1.12999e-25
7.35005e-26
8.12334e-26
1.13668e-25
1.57771e-25
1.44253e-25
1.2246e-25
1.76697e-25
1.99453e-26
3.37494e-26
5.16879e-26
5.0873e-26
4.10165e-26
6.19528e-26
4.60363e-26
5.01332e-26
6.42988e-26
6.98722e-26
7.88179e-26
1.07158e-25
8.99409e-26
8.52677e-26
8.60369e-26
1.05251e-25
1.27616e-25
1.47016e-25
1.37294e-25
1.52771e-25
4.14778e-26
8.09765e-26
6.07907e-26
5.77991e-26
6.05443e-26
7.1335e-26
5.87698e-26
5.19247e-26
9.08007e-26
8.74617e-26
9.3823e-26
1.06146e-25
1.06717e-25
8.6747e-26
9.86328e-26
9.07757e-26
9.62802e-26
1.24588e-25
1.45664e-25
1.45696e-25
8.26601e-26
9.73725e-26
1.0098e-25
6.57542e-26
8.47168e-26
9.8514e-26
8.26484e-26
9.0712e-26
8.79506e-26
7.88111e-26
1.23895e-25
1.53054e-25
1.20302e-25
7.99902e-26
9.58104e-26
9.32334e-26
9.52372e-26
1.0489e-25
1.28226e-25
1.38818e-25
1.24547e-25
1.35943e-25
1.10198e-25
1.2012e-25
1.18626e-25
1.24611e-25
1.23891e-25
1.08522e-25
1.06017e-25
9.77143e-26
1.286e-25
1.35398e-25
1.19991e-25
1.08407e-25
1.08101e-25
1.05672e-25
9.23022e-26
1.07254e-25
1.30571e-25
1.04624e-25
1.65201e-25
1.80459e-25
1.70251e-25
1.37883e-25
1.48856e-25
1.53382e-25
1.42682e-25
1.03307e-25
1.02917e-25
1.4456e-25
1.38256e-25
1.02379e-25
1.24297e-25
1.3243e-25
1.2206e-25
1.01099e-25
1.05993e-25
1.19251e-25
1.11479e-25
1.19334e-25
1.75379e-25
1.99276e-25
1.69885e-25
1.43331e-25
1.14332e-25
1.79755e-25
1.78641e-25
1.26457e-25
9.08844e-26
1.40761e-25
1.41408e-25
1.03645e-25
1.40363e-25
1.52933e-25
1.30451e-25
8.99349e-26
1.23825e-25
1.35055e-25
1.23175e-25
1.43647e-25
1.91639e-25
2.03572e-25
1.95592e-25
1.51345e-25
1.41042e-25
1.76488e-25
1.86598e-25
1.37725e-25
1.14724e-25
1.31432e-25
1.18637e-25
1.10822e-25
1.2177e-25
1.11957e-25
1.29886e-25
1.18325e-25
1.35658e-25
1.31317e-25
1.23635e-25
1.49081e-25
1.99504e-25
1.90736e-25
2.18006e-25
1.7546e-25
1.66673e-25
1.44714e-25
1.44998e-25
1.36881e-25
1.53061e-25
1.46197e-25
1.2404e-25
1.06678e-25
1.32089e-25
1.29618e-25
1.50575e-25
1.40163e-25
1.53239e-25
1.56756e-25
1.58743e-25
1.39285e-25
1.89753e-25
1.95901e-25
1.92315e-25
1.67239e-25
1.49881e-25
1.08202e-25
1.07063e-25
1.37888e-25
1.69085e-25
1.36833e-25
1.46994e-25
1.37392e-25
1.43924e-25
1.62526e-25
1.57916e-25
1.58183e-25
2.02713e-25
1.98725e-25
1.78141e-25
1.51782e-25
1.75806e-25
1.71057e-25
1.66847e-25
1.84599e-25
1.75264e-25
1.01004e-25
1.0961e-25
1.42843e-25
1.66868e-25
1.35119e-25
1.53319e-25
1.66759e-25
1.61265e-25
2.17317e-25
2.01489e-25
1.99971e-25
2.1345e-25
1.6475e-25
1.63978e-25
1.83182e-25
1.88938e-25
1.52255e-25
1.62748e-25
1.67971e-25
1.40928e-25
1.10861e-25
1.09251e-25
1.67638e-25
2.15155e-25
1.60392e-25
1.75141e-25
2.03204e-25
1.95005e-25
2.363e-25
1.76371e-25
1.83303e-25
1.94333e-25
1.98032e-25
1.78528e-25
1.89187e-25
1.61004e-25
1.40033e-25
1.85939e-25
1.63774e-25
1.30483e-25
1.07037e-25
1.3891e-25
1.72954e-25
2.06118e-25
2.08371e-25
2.05282e-25
2.04973e-25
2.17347e-25
2.05324e-25
1.81805e-25
1.88779e-25
1.90972e-25
2.1014e-25
2.14162e-25
2.06435e-25
1.50668e-25
1.42661e-25
1.45668e-25
1.29926e-25
1.19114e-25
1.15721e-25
1.89806e-25
1.97756e-25
2.23598e-25
2.49376e-25
2.15237e-25
2.04974e-25
2.31591e-25
1.93105e-25
1.94295e-25
1.75265e-25
1.80676e-25
2.35548e-25
2.69009e-25
2.16521e-25
1.46632e-25
1.23179e-25
1.17857e-25
1.26084e-25
1.28965e-25
1.23676e-25
1.92453e-25
2.33418e-25
2.38097e-25
2.55766e-25
2.71825e-25
2.47729e-25
2.22111e-25
2.133e-25
2.0249e-25
1.90999e-25
1.79486e-25
2.42906e-25
2.47403e-25
2.27943e-25
1.61371e-25
1.18744e-25
1.05158e-25
1.01951e-25
1.60458e-25
1.69324e-25
2.23117e-25
2.58943e-25
2.48446e-25
2.61465e-25
3.41414e-25
2.95153e-25
2.19979e-25
1.94395e-25
1.65748e-25
1.77139e-25
2.34331e-25
2.72254e-25
2.44766e-25
2.20505e-25
1.66961e-25
1.0842e-25
1.045e-25
1.29947e-25
1.75771e-25
1.81841e-25
2.16783e-25
2.27759e-25
2.33448e-25
2.55554e-25
2.86623e-25
3.0105e-25
2.62248e-25
1.99696e-25
1.96012e-25
2.21095e-25
2.65075e-25
2.61388e-25
2.51253e-25
2.41148e-25
1.54382e-25
1.38635e-25
1.13249e-25
1.48865e-25
1.78191e-25
1.92472e-25
2.27894e-25
1.91873e-25
2.20438e-25
2.58531e-25
2.72835e-25
2.90712e-25
2.72538e-25
2.29922e-25
1.98717e-25
2.5003e-25
2.75331e-25
2.78257e-25
3.01863e-25
2.52375e-25
1.33414e-25
1.33192e-25
1.69441e-25
1.80133e-25
1.77498e-25
1.74194e-25
1.99435e-25
1.9801e-25
2.02805e-25
2.41112e-25
2.64493e-25
2.80365e-25
2.86243e-25
2.48996e-25
2.32783e-25
2.52679e-25
2.7616e-25
3.01551e-25
3.53322e-25
2.71569e-25
)
;

boundaryField
{
    movingWall
    {
        type            calculated;
        value           nonuniform List<scalar> 
20
(
1.33414e-25
1.33192e-25
1.69441e-25
1.80133e-25
1.77498e-25
1.74194e-25
1.99435e-25
1.9801e-25
2.02805e-25
2.41112e-25
2.64493e-25
2.80365e-25
2.86243e-25
2.48996e-25
2.32783e-25
2.52679e-25
2.7616e-25
3.01551e-25
3.53322e-25
2.71569e-25
)
;
    }
    fixedWalls
    {
        type            calculated;
        value           nonuniform List<scalar> 
60
(
2.98097e-27
5.5165e-27
1.99453e-26
4.14778e-26
8.26601e-26
1.24547e-25
1.65201e-25
1.75379e-25
1.91639e-25
1.99504e-25
1.89753e-25
1.75806e-25
1.88938e-25
1.61004e-25
1.50668e-25
1.46632e-25
1.61371e-25
1.66961e-25
1.54382e-25
1.33414e-25
1.69139e-25
1.76697e-25
1.52771e-25
1.45696e-25
1.38818e-25
1.04624e-25
1.19334e-25
1.43647e-25
1.49081e-25
1.39285e-25
1.51782e-25
1.83182e-25
1.89187e-25
2.06435e-25
2.16521e-25
2.27943e-25
2.20505e-25
2.41148e-25
2.52375e-25
2.71569e-25
2.98097e-27
7.17259e-27
3.56311e-26
3.06127e-26
2.30511e-26
3.90944e-26
4.09851e-26
5.2396e-26
4.89107e-26
4.21127e-26
7.535e-26
1.24357e-25
1.21977e-25
6.64025e-26
8.49706e-26
1.06655e-25
1.16754e-25
1.24146e-25
1.61745e-25
1.69139e-25
)
;
    }
    frontAndBack
    {
        type            empty;
    }
}


// ************************************************************************* //
