/*--------------------------------*- C++ -*----------------------------------*\
| =========                 |                                                 |
| \\      /  F ield         | OpenFOAM: The Open Source CFD Toolbox           |
|  \\    /   O peration     | Version:  2506                                  |
|   \\  /    A nd           | Website:  www.openfoam.com                      |
|    \\/     M anipulation  |                                                 |
\*---------------------------------------------------------------------------*/
FoamFile
{
    version     2.0;
    format      ascii;
    arch        "LSB;label=32;scalar=64";
    class       volScalarField;
    location    "6";
    object      dUdt2;
}
// * * * * * * * * * * * * * * * * * * * * * * * * * * * * * * * * * * * * * //

dimensions      [0 2 -4 0 0 0 0];

internalField   nonuniform List<scalar> 
400
(
1.39627e-26
4.66567e-27
5.11582e-28
8.87527e-30
1.24649e-26
5.91651e-28
3.25456e-29
3.49228e-30
6.29044e-28
7.72571e-29
1.502e-29
5.90857e-29
2.03731e-27
1.9998e-27
5.03689e-30
2.06069e-27
3.27793e-28
1.97221e-27
3.55474e-28
1.83948e-29
7.93746e-27
7.2536e-28
1.34112e-29
1.54012e-28
2.13575e-27
1.98038e-27
2.11706e-27
7.0587e-28
5.35215e-28
3.35152e-29
4.96216e-28
1.98585e-30
7.00936e-28
6.46355e-28
4.93141e-28
1.76242e-29
2.05161e-27
1.97371e-27
2.18782e-27
2.92891e-30
2.46207e-27
4.96203e-28
2.27617e-27
4.46067e-27
6.26279e-28
1.88721e-29
1.98191e-27
7.27172e-29
2.53663e-28
1.72289e-28
6.60703e-30
4.48073e-27
2.0573e-27
1.97243e-27
1.2063e-28
1.63625e-30
2.62132e-28
2.01464e-27
4.94183e-28
5.25475e-28
1.63197e-26
1.98941e-27
8.59432e-27
5.58855e-27
2.25437e-27
6.19222e-30
1.67335e-28
2.144e-29
1.25663e-28
2.13966e-28
1.05488e-29
8.42806e-30
3.29372e-32
7.4183e-29
2.05778e-27
6.72272e-32
2.18191e-27
5.51733e-28
4.13146e-29
2.09003e-29
9.16631e-27
3.85845e-27
2.01049e-27
1.36512e-29
7.91282e-27
4.43902e-27
4.98866e-28
5.02051e-28
5.972e-28
2.0041e-27
4.93103e-28
2.08808e-27
1.97389e-27
6.74502e-28
2.19732e-29
2.65603e-31
6.34819e-28
4.94688e-28
5.04055e-28
6.71488e-28
1.68529e-27
2.40753e-27
1.99359e-27
2.07136e-27
1.9851e-27
5.79665e-28
2.01598e-27
9.25369e-29
2.2472e-29
6.13037e-29
4.77982e-28
2.17287e-27
5.48844e-28
1.26987e-27
9.1856e-28
4.9304e-28
1.87101e-30
5.06614e-28
1.09049e-28
5.1678e-28
4.39907e-26
7.17634e-28
7.11479e-28
9.45981e-29
7.55459e-28
1.98383e-27
4.93126e-28
7.73118e-28
6.11901e-28
1.55724e-29
1.97771e-27
6.18425e-29
4.61681e-27
2.06079e-27
5.48355e-28
6.00334e-28
1.97491e-27
1.97957e-27
5.16725e-28
6.96614e-29
4.77056e-27
3.1797e-27
2.07452e-27
2.32044e-27
2.26581e-27
8.51173e-29
8.74687e-29
1.01575e-28
2.14145e-27
1.9817e-27
2.0462e-27
1.42546e-28
6.08448e-28
2.76894e-27
2.02951e-27
1.9728e-27
2.01284e-27
1.00177e-30
8.77474e-29
1.112e-29
4.53717e-27
1.92805e-27
2.03519e-27
2.15737e-27
3.1288e-29
1.08207e-27
1.68029e-27
2.35771e-28
7.35483e-28
8.02832e-28
2.25763e-31
6.80568e-28
2.82224e-28
2.21427e-27
1.97618e-27
1.83298e-28
1.9728e-27
5.10194e-28
5.30256e-28
1.99672e-27
3.43754e-26
2.94656e-27
1.39472e-27
2.58401e-27
1.14058e-27
2.12487e-27
2.63678e-27
4.49417e-27
7.70638e-28
2.7779e-30
2.00779e-27
1.6006e-28
2.07889e-27
2.58894e-29
2.50951e-27
2.03323e-27
1.47228e-29
1.17173e-28
6.15386e-28
4.7042e-30
3.06097e-26
3.20093e-27
2.60269e-27
1.13199e-27
4.50425e-27
2.11929e-27
4.44214e-27
2.00749e-27
1.57398e-30
2.09487e-27
1.9016e-30
7.53669e-28
1.22481e-29
5.84079e-30
5.6647e-28
6.44448e-28
4.64509e-27
4.93348e-28
4.93568e-28
5.64932e-28
1.0024e-26
2.62938e-27
2.41576e-27
5.17831e-30
7.88986e-27
1.97331e-27
7.00023e-29
1.10058e-29
1.28512e-28
2.01025e-27
1.99803e-27
2.02968e-27
1.97503e-27
1.9831e-27
1.97227e-27
3.53895e-30
2.02069e-27
2.06966e-27
1.08052e-29
5.19155e-28
4.71516e-27
5.73779e-28
2.45832e-27
6.80779e-29
7.64303e-28
4.541e-28
2.00322e-27
2.06284e-27
2.86629e-27
1.16918e-27
7.92534e-27
1.35259e-28
1.77834e-29
2.02257e-27
5.99119e-31
2.12107e-27
1.04403e-28
2.01793e-27
2.1079e-27
2.00501e-27
5.36535e-27
7.24382e-28
5.0465e-28
7.91018e-27
8.26145e-29
1.99333e-27
2.95531e-27
2.11229e-27
1.82175e-29
6.51596e-28
1.3115e-29
1.99254e-27
6.18e-30
6.68987e-28
2.13423e-27
3.4043e-28
4.03017e-29
1.85174e-28
1.08108e-27
6.39546e-28
2.06841e-26
2.0017e-27
8.94657e-28
2.19075e-27
1.99592e-27
6.34915e-28
1.86529e-27
3.7535e-27
1.50423e-28
1.98472e-27
5.21203e-28
5.2091e-28
3.86796e-29
2.04115e-27
1.06353e-28
2.0238e-27
4.54046e-27
2.00487e-27
5.50478e-28
5.259e-29
8.17502e-27
1.26751e-27
1.9872e-27
2.25621e-29
2.65176e-27
2.44876e-27
2.3546e-27
8.63889e-28
3.08361e-29
1.70145e-29
9.52405e-28
4.98566e-28
1.78789e-28
2.06183e-29
6.29063e-28
5.33901e-28
3.80148e-30
5.0349e-28
1.48047e-29
7.11762e-30
4.68795e-27
4.43842e-27
6.06627e-28
4.6898e-27
2.3169e-27
2.01063e-27
6.56621e-29
5.60566e-28
1.97845e-27
2.07487e-29
4.93883e-28
6.40622e-28
1.99509e-27
2.08041e-27
1.283e-28
3.68813e-30
2.18205e-27
5.13341e-28
5.00123e-28
5.1457e-28
8.18221e-27
3.83886e-28
2.13614e-27
6.65002e-29
2.18392e-27
2.7839e-27
7.38152e-29
1.34422e-28
1.02186e-28
3.69075e-30
4.29737e-28
2.06962e-27
4.94997e-28
5.22776e-29
5.94402e-28
1.11084e-27
3.34766e-28
5.87903e-29
1.97887e-27
1.8039e-29
6.51867e-27
5.83824e-28
7.42734e-28
2.65183e-28
2.11086e-27
6.74952e-29
1.5842e-30
2.04691e-27
3.04593e-28
2.51981e-28
1.50836e-28
1.69395e-28
3.23825e-28
3.05308e-29
2.00906e-27
4.50982e-27
4.98042e-28
1.65499e-29
5.01686e-31
7.92659e-30
2.05204e-27
2.27845e-27
5.33133e-28
2.0311e-28
2.01808e-27
5.47816e-28
5.35781e-28
2.59698e-30
4.95761e-28
2.01257e-27
4.9612e-28
5.86441e-28
6.43967e-28
5.44812e-28
1.99178e-27
1.01685e-30
4.56567e-27
1.97216e-27
5.00287e-28
5.04748e-28
)
;

boundaryField
{
    movingWall
    {
        type            calculated;
        value           uniform 0;
    }
    fixedWalls
    {
        type            calculated;
        value           uniform 0;
    }
    frontAndBack
    {
        type            empty;
    }
}


// ************************************************************************* //
