/*--------------------------------*- C++ -*----------------------------------*\
| =========                 |                                                 |
| \\      /  F ield         | OpenFOAM: The Open Source CFD Toolbox           |
|  \\    /   O peration     | Version:  2506                                  |
|   \\  /    A nd           | Website:  www.openfoam.com                      |
|    \\/     M anipulation  |                                                 |
\*---------------------------------------------------------------------------*/
FoamFile
{
    version     2.0;
    format      ascii;
    arch        "LSB;label=32;scalar=64";
    class       volScalarField;
    location    "6";
    object      enstrophyField;
}
// * * * * * * * * * * * * * * * * * * * * * * * * * * * * * * * * * * * * * //

dimensions      [0 0 -2 0 0 0 0];

internalField   nonuniform List<scalar> 
400
(
3.29244e-23
5.568e-23
2.5483e-24
1.32643e-25
6.24277e-28
8.52789e-28
1.1363e-27
7.61034e-28
8.30849e-28
1.51641e-29
3.79202e-28
1.68051e-29
1.69821e-27
1.59822e-27
2.70959e-28
3.44937e-29
5.84082e-29
8.40078e-29
2.87962e-29
4.9044e-30
8.15674e-25
2.89182e-24
2.29386e-25
1.60972e-26
8.06156e-27
4.0182e-27
8.76655e-27
8.25131e-28
1.03404e-29
7.72662e-29
1.82596e-28
9.91551e-29
1.1596e-27
1.17641e-28
1.10483e-27
1.34203e-27
1.46373e-28
2.05258e-29
2.16157e-29
6.53511e-29
1.64111e-23
5.6526e-23
3.23538e-24
1.38189e-25
8.64947e-27
1.63874e-27
3.20442e-28
4.61025e-27
6.69229e-27
1.24968e-27
3.1432e-27
1.51682e-27
3.56539e-27
6.40114e-28
3.91605e-27
2.14735e-28
6.3851e-28
6.30004e-28
5.94231e-28
2.50892e-30
1.23542e-23
2.56558e-23
1.43294e-24
5.45247e-26
9.28188e-28
6.51803e-27
4.94381e-27
3.76894e-27
2.68398e-27
5.8383e-27
3.55142e-27
5.82729e-29
2.86103e-27
8.26172e-28
5.02689e-27
4.71672e-28
3.50845e-27
4.00132e-27
1.287e-29
2.56465e-28
2.31858e-24
1.27323e-25
1.75476e-26
7.18822e-28
2.50813e-27
1.76639e-27
3.97304e-27
1.50189e-27
9.54045e-28
2.13762e-28
1.30855e-27
5.18378e-27
2.14533e-27
8.33834e-27
2.47257e-27
3.16592e-27
7.12154e-28
6.44972e-31
1.62233e-29
6.60806e-28
8.72661e-24
1.79532e-23
1.12131e-24
4.27256e-26
6.85805e-28
2.26351e-28
3.73665e-28
2.43548e-29
1.09531e-27
2.54874e-27
1.02422e-26
7.93888e-27
2.70665e-28
5.38925e-28
1.0121e-28
5.78144e-28
1.25304e-27
9.69895e-28
6.47292e-28
1.3819e-29
2.58228e-23
3.15617e-23
1.82813e-24
5.7944e-26
1.73806e-26
3.73364e-27
7.40698e-27
8.14504e-27
3.76189e-27
3.20999e-27
8.7177e-29
4.24511e-28
2.04782e-28
3.47864e-28
2.75227e-27
2.74943e-27
1.8183e-27
1.13653e-27
6.33659e-29
4.68057e-28
3.45574e-24
3.47619e-24
1.75932e-25
6.85011e-27
4.52323e-28
1.71692e-30
5.36059e-30
4.70018e-29
3.47694e-28
2.73963e-27
1.06528e-26
4.98893e-27
1.34872e-27
1.33094e-27
1.9719e-29
2.04982e-30
1.31853e-27
1.45917e-27
1.70185e-30
2.31598e-28
6.94723e-24
8.6644e-24
4.93601e-25
2.11798e-26
1.27553e-26
4.81912e-27
1.63612e-27
7.39274e-27
6.8904e-27
6.79059e-28
2.7016e-28
4.89487e-27
1.27314e-27
2.83218e-29
2.94557e-29
5.10036e-29
1.74753e-27
3.17474e-29
3.28445e-28
4.54825e-29
2.32384e-23
2.40579e-23
1.25866e-24
6.47314e-26
3.0411e-27
3.1359e-29
2.63696e-27
1.39846e-27
3.44328e-28
1.609e-29
8.07742e-29
2.25018e-27
1.64488e-27
8.76831e-29
3.0799e-27
2.14334e-27
3.4343e-29
1.22683e-28
6.96424e-30
1.44453e-29
1.95095e-23
2.04343e-23
9.12614e-25
9.69e-26
9.22762e-28
1.80574e-27
1.20014e-27
9.4236e-27
1.02053e-26
3.74453e-27
6.07422e-29
1.03849e-27
7.77174e-28
5.61599e-27
1.44548e-27
2.71359e-27
7.40257e-28
6.96394e-33
5.04465e-28
3.04203e-28
5.70165e-24
5.23294e-24
3.02413e-25
2.74502e-27
8.59506e-27
3.03784e-27
4.16748e-27
3.55139e-28
2.88819e-27
2.73838e-27
3.28503e-27
6.16964e-27
4.22936e-27
4.66873e-27
2.85425e-27
2.2278e-27
3.72596e-27
2.042e-27
1.37368e-27
1.15673e-28
1.35752e-24
1.02099e-24
3.01788e-26
2.34285e-26
4.64547e-28
1.51504e-28
3.16936e-30
5.14946e-27
1.508e-26
1.26654e-26
4.40183e-27
3.68351e-30
4.45279e-29
4.56433e-27
3.72192e-27
2.62779e-27
1.39524e-27
3.94553e-27
1.55742e-31
1.39604e-28
1.56714e-23
1.63239e-23
9.04308e-25
2.41888e-26
1.99895e-26
3.43109e-27
6.72288e-27
1.35814e-28
4.02993e-28
1.7337e-29
9.60361e-29
1.68738e-27
2.03256e-27
1.5608e-27
9.34928e-28
1.14101e-27
2.3313e-27
1.18041e-27
3.68061e-27
6.1864e-28
1.71974e-23
2.54866e-23
1.43405e-24
6.48768e-26
9.53754e-27
4.0308e-28
1.5335e-27
8.6443e-28
1.08046e-28
1.32108e-28
2.6459e-30
1.87371e-27
1.75584e-27
1.94736e-29
1.77032e-27
3.97564e-28
4.12575e-28
1.31908e-27
2.63258e-28
6.42198e-28
7.55768e-24
1.17847e-23
7.23356e-25
2.79138e-26
1.96945e-27
9.4605e-29
1.41021e-29
3.40782e-31
1.84065e-28
1.73752e-27
3.93318e-30
3.64199e-28
2.1226e-27
5.82022e-29
3.7337e-29
2.94476e-28
4.2563e-28
2.044e-28
1.08778e-30
1.22801e-30
4.04364e-25
2.40979e-25
1.6744e-26
1.19541e-28
2.6139e-27
4.24812e-28
3.07248e-27
3.24785e-27
1.69655e-27
4.39168e-29
1.94583e-27
2.90656e-27
4.09963e-31
2.21097e-29
1.53991e-30
6.98458e-30
4.30428e-30
4.05888e-28
1.74351e-29
9.49271e-31
6.17786e-24
2.40769e-23
1.4067e-24
3.80041e-26
1.67474e-26
1.13294e-27
1.77568e-27
4.34326e-27
3.68783e-27
1.82859e-27
7.50476e-29
1.64857e-27
1.59232e-27
1.35965e-30
7.7239e-29
9.93232e-28
7.22251e-31
2.13873e-27
6.12113e-30
5.34411e-30
4.68819e-24
5.05726e-24
4.18133e-25
1.09493e-27
1.4916e-26
1.11629e-26
6.95596e-27
7.83108e-27
4.00329e-27
1.47763e-30
1.1022e-28
2.57471e-27
2.03982e-27
1.22264e-29
3.67815e-30
4.78006e-28
4.34268e-30
1.32646e-27
2.30744e-28
3.23573e-28
1.26999e-23
2.83795e-23
1.07997e-24
9.73038e-26
5.04674e-28
4.73527e-27
1.3297e-27
1.79002e-27
4.64199e-28
6.18249e-28
4.57861e-28
7.92784e-29
8.71296e-29
6.37614e-32
1.60016e-29
1.91839e-27
2.04148e-29
2.95195e-30
3.51823e-28
5.16839e-28
)
;

boundaryField
{
    movingWall
    {
        type            calculated;
        value           nonuniform List<scalar> 
20
(
4.37409e-23
4.00489e-23
6.34506e-25
3.09381e-25
4.92038e-26
8.63957e-26
3.47986e-26
3.70129e-26
9.3286e-27
1.72412e-26
4.22958e-27
1.36197e-26
1.35194e-26
3.97609e-27
1.25331e-27
4.66091e-27
2.04148e-29
2.95195e-30
9.60542e-28
1.22289e-27
)
;
    }
    fixedWalls
    {
        type            calculated;
        value           nonuniform List<scalar> 
60
(
9.92241e-22
5.8123e-23
1.04328e-21
4.70262e-22
2.62317e-24
3.40566e-22
5.94648e-22
6.14797e-23
1.62009e-22
4.35466e-22
3.70796e-22
1.0687e-22
1.9181e-23
3.09481e-22
4.7293e-22
2.22908e-22
4.44847e-24
4.48897e-22
1.02778e-22
4.88986e-22
2.19373e-29
6.75274e-28
2.3088e-28
5.33861e-28
4.98757e-28
4.08749e-29
3.20099e-28
2.94116e-28
3.11299e-29
1.25772e-29
3.57359e-28
3.15606e-28
2.05122e-28
1.72088e-27
1.29012e-27
3.27633e-29
7.76314e-29
2.99582e-29
5.83758e-28
5.74708e-28
9.94956e-23
7.87001e-23
2.0366e-24
2.28077e-25
1.88592e-26
1.83992e-26
8.02497e-27
1.58583e-27
9.32825e-29
3.47034e-27
9.42142e-32
3.44619e-27
8.27706e-30
4.15369e-27
7.31881e-30
3.44937e-29
1.39157e-26
8.40078e-29
6.77855e-28
4.9044e-30
)
;
    }
    frontAndBack
    {
        type            empty;
    }
}


// ************************************************************************* //
