/*--------------------------------*- C++ -*----------------------------------*\
| =========                 |                                                 |
| \\      /  F ield         | OpenFOAM: The Open Source CFD Toolbox           |
|  \\    /   O peration     | Version:  2506                                  |
|   \\  /    A nd           | Website:  www.openfoam.com                      |
|    \\/     M anipulation  |                                                 |
\*---------------------------------------------------------------------------*/
FoamFile
{
    version     2.0;
    format      ascii;
    arch        "LSB;label=32;scalar=64";
    class       volScalarField;
    location    "6";
    object      epsilonzeroGrad;
}
// * * * * * * * * * * * * * * * * * * * * * * * * * * * * * * * * * * * * * //

dimensions      [0 2 -3 0 0 0 0];

internalField   nonuniform List<scalar> 
400
(
4.12592e-06
4.12591e-06
4.1259e-06
4.1259e-06
4.12589e-06
4.12589e-06
4.12588e-06
4.12589e-06
4.12588e-06
4.12588e-06
4.12587e-06
4.12587e-06
4.12587e-06
4.12587e-06
4.12587e-06
4.12587e-06
4.12587e-06
4.12587e-06
4.12587e-06
4.12587e-06
4.44504e-06
4.36526e-06
4.37182e-06
4.37458e-06
4.38003e-06
4.3829e-06
4.38834e-06
4.39132e-06
4.39676e-06
4.39984e-06
4.40531e-06
4.40847e-06
4.41398e-06
4.41721e-06
4.42276e-06
4.42605e-06
4.43167e-06
4.43501e-06
4.43786e-06
4.44238e-06
4.91061e-06
4.81811e-06
4.82582e-06
4.82906e-06
4.83544e-06
4.8388e-06
4.84515e-06
4.84861e-06
4.85495e-06
4.85851e-06
4.86487e-06
4.86849e-06
4.87488e-06
4.87856e-06
4.885e-06
4.88871e-06
4.89521e-06
4.89896e-06
4.90225e-06
4.90741e-06
5.34831e-06
5.2445e-06
5.25314e-06
5.25677e-06
5.26392e-06
5.26768e-06
5.27479e-06
5.27868e-06
5.28579e-06
5.28977e-06
5.2969e-06
5.30096e-06
5.30813e-06
5.31225e-06
5.31948e-06
5.32365e-06
5.33094e-06
5.33514e-06
5.33883e-06
5.34462e-06
5.67479e-06
5.5622e-06
5.57156e-06
5.57549e-06
5.58323e-06
5.58731e-06
5.59501e-06
5.59922e-06
5.60692e-06
5.61124e-06
5.61896e-06
5.62337e-06
5.63113e-06
5.63561e-06
5.64343e-06
5.64796e-06
5.65586e-06
5.66043e-06
5.66443e-06
5.67071e-06
5.88739e-06
5.76898e-06
5.77881e-06
5.78294e-06
5.79107e-06
5.79536e-06
5.80345e-06
5.80788e-06
5.81597e-06
5.82052e-06
5.82863e-06
5.83327e-06
5.84143e-06
5.84614e-06
5.85436e-06
5.85912e-06
5.86743e-06
5.87224e-06
5.87644e-06
5.88304e-06
6.01659e-06
5.89461e-06
5.90473e-06
5.90899e-06
5.91736e-06
5.92177e-06
5.93011e-06
5.93467e-06
5.943e-06
5.94768e-06
5.95604e-06
5.96081e-06
5.96922e-06
5.97407e-06
5.98254e-06
5.98745e-06
5.996e-06
6.00096e-06
6.00528e-06
6.01209e-06
6.09468e-06
5.97051e-06
5.9808e-06
5.98514e-06
5.99365e-06
5.99814e-06
6.00662e-06
6.01127e-06
6.01974e-06
6.02451e-06
6.03301e-06
6.03787e-06
6.04642e-06
6.05136e-06
6.05998e-06
6.06498e-06
6.07368e-06
6.07872e-06
6.08313e-06
6.09005e-06
6.14492e-06
6.01937e-06
6.02978e-06
6.03416e-06
6.04277e-06
6.04731e-06
6.05589e-06
6.06058e-06
6.06915e-06
6.07397e-06
6.08256e-06
6.08748e-06
6.09612e-06
6.10112e-06
6.10983e-06
6.11489e-06
6.12369e-06
6.12879e-06
6.13324e-06
6.14025e-06
6.18165e-06
6.05508e-06
6.06557e-06
6.06998e-06
6.07866e-06
6.08324e-06
6.09188e-06
6.09661e-06
6.10525e-06
6.11011e-06
6.11877e-06
6.12373e-06
6.13244e-06
6.13748e-06
6.14626e-06
6.15136e-06
6.16023e-06
6.16537e-06
6.16986e-06
6.17692e-06
6.21288e-06
6.08543e-06
6.096e-06
6.10044e-06
6.10918e-06
6.11378e-06
6.12248e-06
6.12725e-06
6.13594e-06
6.14083e-06
6.14955e-06
6.15454e-06
6.16332e-06
6.16839e-06
6.17723e-06
6.18236e-06
6.19129e-06
6.19647e-06
6.20099e-06
6.2081e-06
6.24299e-06
6.11473e-06
6.12536e-06
6.12984e-06
6.13863e-06
6.14326e-06
6.15202e-06
6.15681e-06
6.16557e-06
6.17049e-06
6.17927e-06
6.18429e-06
6.19312e-06
6.19822e-06
6.20712e-06
6.21228e-06
6.22127e-06
6.22648e-06
6.23103e-06
6.23819e-06
6.2746e-06
6.14546e-06
6.15616e-06
6.16066e-06
6.16951e-06
6.17418e-06
6.18299e-06
6.18782e-06
6.19663e-06
6.20158e-06
6.21042e-06
6.21548e-06
6.22436e-06
6.2295e-06
6.23846e-06
6.24366e-06
6.25271e-06
6.25796e-06
6.26253e-06
6.26974e-06
6.30928e-06
6.17919e-06
6.18997e-06
6.1945e-06
6.20342e-06
6.20812e-06
6.217e-06
6.22186e-06
6.23074e-06
6.23573e-06
6.24463e-06
6.24972e-06
6.25867e-06
6.26385e-06
6.27287e-06
6.27811e-06
6.28723e-06
6.29251e-06
6.29713e-06
6.30438e-06
6.34815e-06
6.217e-06
6.22786e-06
6.23243e-06
6.24142e-06
6.24615e-06
6.25511e-06
6.26001e-06
6.26895e-06
6.27399e-06
6.28296e-06
6.28809e-06
6.29712e-06
6.30234e-06
6.31144e-06
6.31672e-06
6.3259e-06
6.33124e-06
6.33589e-06
6.3432e-06
6.39154e-06
6.25919e-06
6.27015e-06
6.27476e-06
6.28383e-06
6.28861e-06
6.29764e-06
6.30259e-06
6.31162e-06
6.31669e-06
6.32575e-06
6.33093e-06
6.34004e-06
6.3453e-06
6.35448e-06
6.35981e-06
6.36908e-06
6.37447e-06
6.37916e-06
6.38654e-06
6.43824e-06
6.30459e-06
6.31566e-06
6.32031e-06
6.32947e-06
6.33429e-06
6.34341e-06
6.3484e-06
6.35752e-06
6.36264e-06
6.37178e-06
6.37702e-06
6.38621e-06
6.39153e-06
6.4008e-06
6.40618e-06
6.41554e-06
6.42097e-06
6.42571e-06
6.43317e-06
6.48424e-06
6.34939e-06
6.36055e-06
6.36524e-06
6.37448e-06
6.37934e-06
6.38854e-06
6.39358e-06
6.40278e-06
6.40795e-06
6.41717e-06
6.42246e-06
6.43173e-06
6.4371e-06
6.44645e-06
6.45189e-06
6.46133e-06
6.46683e-06
6.4716e-06
6.47913e-06
6.52237e-06
6.3892e-06
6.40001e-06
6.40458e-06
6.41356e-06
6.41835e-06
6.4273e-06
6.4323e-06
6.44128e-06
6.44645e-06
6.45547e-06
6.46079e-06
6.4699e-06
6.47533e-06
6.48455e-06
6.49007e-06
6.49943e-06
6.50504e-06
6.50979e-06
6.51736e-06
6.53951e-06
6.53949e-06
6.53948e-06
6.53947e-06
6.53947e-06
6.53945e-06
6.53946e-06
6.53944e-06
6.53945e-06
6.53943e-06
6.53944e-06
6.53942e-06
6.53943e-06
6.53942e-06
6.53943e-06
6.53942e-06
6.53942e-06
6.53942e-06
6.53942e-06
6.53942e-06
)
;

boundaryField
{
    movingWall
    {
        type            zeroGradient;
    }
    fixedWalls
    {
        type            zeroGradient;
    }
    frontAndBack
    {
        type            empty;
    }
}


// ************************************************************************* //
