/*--------------------------------*- C++ -*----------------------------------*\
| =========                 |                                                 |
| \\      /  F ield         | OpenFOAM: The Open Source CFD Toolbox           |
|  \\    /   O peration     | Version:  2506                                  |
|   \\  /    A nd           | Website:  www.openfoam.com                      |
|    \\/     M anipulation  |                                                 |
\*---------------------------------------------------------------------------*/
FoamFile
{
    version     2.0;
    format      ascii;
    arch        "LSB;label=32;scalar=64";
    class       volScalarField;
    location    "6";
    object      flowTypeField;
}
// * * * * * * * * * * * * * * * * * * * * * * * * * * * * * * * * * * * * * //

dimensions      [0 0 0 0 0 0 0];

internalField   nonuniform List<scalar> 
400
(
0.47004
0.0617067
0.0738921
0.0780591
0.699075
-0.00960052
0.251659
0.194911
0.151765
0.854313
0.491503
0.0686562
0.226938
0.242576
0.158988
0.799954
0.0572605
0.708908
0.0464852
0.619854
0.927235
0.557191
0.486026
0.368835
0.0560835
-0.0935093
0.0563579
0.0798766
0.0749585
0.0289749
0.287681
0.00589532
0.114833
0.463924
-0.0475462
0.0653797
0.452126
0.88448
0.566571
0.735424
0.458673
0.100419
0.0143144
0.137376
0.0632945
0.354523
0.064856
-0.153715
-0.0199004
0.0782374
0.0267155
-0.015225
0.0391279
-0.143825
-0.0799774
0.397428
0.395914
0.496406
0.145516
0.913634
0.587698
0.128056
0.0773095
0.132109
0.58461
-0.397435
-0.218078
-0.0668581
0.144904
0.00340928
0.0170525
0.130376
0.11474
0.0178106
-0.172285
0.600987
0.0372474
-0.0391985
0.746992
0.34431
0.81445
0.809313
0.732439
0.719238
0.3496
0.0543211
-0.0323852
0.0913561
0.200046
0.440555
0.152848
0.105441
-0.0326569
-0.146556
-0.287688
0.172449
0.350018
0.692634
0.605621
0.371072
0.535371
0.102702
-0.0317121
0.145961
0.44001
0.344182
0.00856961
0.528149
0.262709
-0.122796
-0.244496
-0.120057
0.373741
0.241431
0.0055052
0.219076
0.198435
-0.236646
-0.176457
0.00702742
0.0974661
0.0261969
-0.149617
0.140456
-0.544359
0.223243
-0.0812042
-0.128078
-0.015637
0.181869
0.522603
0.498218
0.779919
0.0376927
-0.331782
-0.28218
-0.046769
0.345101
0.546027
0.187834
0.750207
0.255207
0.25017
0.364612
0.341768
0.576321
0.902607
0.269432
0.541149
-0.0863583
-0.113479
-0.130791
-0.52706
0.401671
0.746198
0.0395766
0.0693032
0.403446
0.41368
0.203308
0.583095
0.110021
-0.0199391
0.169898
-0.23266
0.0989195
-0.0266154
-0.115783
-0.0572367
-0.247489
0.142026
-0.120993
-0.110915
0.812926
0.04028
0.104413
-0.0800868
0.642503
0.0968941
0.594677
-0.123094
-0.025675
-0.132291
-0.168134
0.0536178
0.645045
-0.330772
-0.156824
0.306489
0.58709
0.802155
-0.0831547
-0.0396601
0.508567
-0.221918
-0.0633123
0.0269173
0.0485221
0.893252
0.0575164
0.0232549
-0.0125086
-0.0294991
-0.356057
0.400687
0.0885345
0.202106
0.00684056
0.0942141
-0.0623875
0.580373
-0.497099
-0.265684
-0.167674
0.125751
-0.334103
0.0762233
0.959427
-0.0434474
0.329076
0.547494
0.148652
0.0281909
0.668199
0.144576
0.187539
0.0738238
0.290666
0.114715
0.264618
0.211836
0.00737699
-0.0606177
-0.179412
0.157829
0.298888
-0.0608377
-0.176375
0.135933
0.455441
0.783503
0.422971
0.503324
-0.0202727
0.171772
0.0274573
0.875132
-0.00813887
-0.0687861
-0.143669
0.134303
0.906297
0.0258529
0.0436335
0.126958
0.107569
0.0257069
-0.0632021
0.956793
0.658479
0.271067
0.0321222
-0.073251
0.254686
-0.417694
0.0331252
-0.0231795
0.766868
0.262102
0.637554
0.652287
0.0496046
-0.156825
0.249141
0.280226
0.199479
-0.25136
-0.70464
0.00558026
0.190284
0.0428295
0.0319076
-0.0666872
0.011424
-0.610644
0.0391848
-0.169939
-0.00346675
0.469341
0.0163012
0.876805
0.00389154
0.22078
0.839861
-0.0913205
0.479615
-0.0450022
0.152316
0.330032
0.123265
0.551456
0.116723
0.00885665
0.0661782
0.213964
0.80007
0.869266
0.834251
0.479833
-0.0861659
0.84626
0.0282609
-0.127847
0.588369
0.626192
0.342747
-0.0743981
0.42879
0.540026
0.372619
0.911458
0.736704
0.714781
0.865917
0.0135617
0.222373
-0.432307
-0.462113
-0.0601731
0.0412925
0.198033
-0.346723
0.959298
0.106908
0.66524
0.891472
0.482869
-0.0491019
0.0575323
0.51273
0.483536
0.118968
-0.00953203
0.313953
-0.357099
0.420057
0.0211962
-0.11895
0.0109002
0.196769
0.733051
0.230001
0.102112
0.676832
0.101078
-0.0140495
0.678281
-0.192779
0.809221
0.818303
0.769024
0.359696
0.195129
0.767412
-0.168077
-0.0980482
-0.0859007
0.076363
0.173592
0.91285
0.440916
-0.139056
-0.126988
0.800706
0.918789
-0.118105
0.578657
0.0492611
0.211563
0.0675379
0.568204
0.0746843
0.162561
-0.0857625
0.645372
-0.154065
0.350101
0.25599
0.0877682
0.120527
0.0111064
0.517491
0.545733
0.918708
0.460286
0.0127224
0.70383
0.853734
0.0483977
0.155231
)
;

boundaryField
{
    movingWall
    {
        type            calculated;
        value           nonuniform List<scalar> 
20
(
0.663961
0.141274
0.480916
-0.250607
0.235686
-0.0391651
0.0395027
0.00411167
-0.0158628
-0.0302437
-0.0217272
0.080463
0.100173
0.128349
0.108386
0.013664
0.698066
0.853323
0.0529261
0.0592964
)
;
    }
    fixedWalls
    {
        type            calculated;
        value           nonuniform List<scalar> 
60
(
0.0673838
0.557591
0.0846935
0.1196
0.810413
0.0856154
-0.00341901
0.307328
0.110489
-0.0391818
-0.0242339
0.120802
0.452971
0.00391011
0.00953609
0.0967918
0.750467
0.097598
0.347483
0.0980593
0.407419
0.559008
0.633955
0.373579
0.362873
0.0025245
0.45751
0.105671
0.0269294
0.0644548
0.437232
0.453572
0.271602
0.186838
0.124086
0.0497359
0.0435807
0.76795
-0.23953
0.316832
0.640213
0.131931
0.349693
0.040753
0.415765
-0.0427849
0.192571
0.290555
0.644111
0.187978
0.971884
0.0676215
0.885271
0.120374
0.00785656
0.793609
0.0750993
0.747055
0.225151
0.467665
)
;
    }
    frontAndBack
    {
        type            empty;
    }
}


// ************************************************************************* //
