/*--------------------------------*- C++ -*----------------------------------*\
| =========                 |                                                 |
| \\      /  F ield         | OpenFOAM: The Open Source CFD Toolbox           |
|  \\    /   O peration     | Version:  2506                                  |
|   \\  /    A nd           | Website:  www.openfoam.com                      |
|    \\/     M anipulation  |                                                 |
\*---------------------------------------------------------------------------*/
FoamFile
{
    version     2.0;
    format      ascii;
    arch        "LSB;label=32;scalar=64";
    class       surfaceScalarField;
    location    "6";
    object      fluxField;
}
// * * * * * * * * * * * * * * * * * * * * * * * * * * * * * * * * * * * * * //

dimensions      [0 3 -1 0 0 0 0];

oriented        oriented;

internalField   nonuniform List<scalar> 
760
(
-5e-05
3.57666e-18
-5e-05
-7.54332e-19
-5e-05
1.88173e-19
-5e-05
-3.41621e-20
-5e-05
7.77524e-21
-5e-05
-3.6042e-22
-5e-05
6.30955e-21
-5e-05
7.27227e-21
-5e-05
6.71198e-21
-5e-05
2.72065e-21
-5e-05
2.22743e-21
-5e-05
6.13368e-22
-5e-05
-2.74249e-21
-5e-05
-1.91679e-21
-5e-05
1.67398e-21
-5e-05
4.01517e-21
-5e-05
-1.00303e-21
-5e-05
-2.96433e-21
-5e-05
6.35698e-22
-2.71085e-21
-5e-05
-2.36403e-18
-5e-05
5.1924e-19
-5e-05
-1.17379e-19
-5e-05
2.55238e-20
-5e-05
-1.04779e-20
-5e-05
-2.71838e-21
-5e-05
-8.59169e-22
-5e-05
2.83237e-21
-5e-05
6.19748e-21
-5e-05
3.51336e-21
-5e-05
2.03557e-21
-5e-05
1.00751e-21
-5e-05
-1.26788e-21
-5e-05
2.767e-22
-5e-05
4.73565e-21
-5e-05
7.04819e-21
-5e-05
2.53976e-21
-5e-05
-1.84795e-21
-5e-05
-3.74041e-21
-5.33397e-21
-5e-05
-1.1059e-18
-5e-05
2.4547e-19
-5e-05
-6.23694e-20
-5e-05
1.24215e-20
-5e-05
5.58892e-23
-5e-05
3.8641e-21
-5e-05
-6.23142e-22
-5e-05
-1.11359e-21
-5e-05
1.67747e-21
-5e-05
2.71649e-21
-5e-05
7.13796e-22
-5e-05
1.4686e-21
-5e-05
3.62982e-21
-5e-05
3.66849e-21
-5e-05
2.41263e-21
-5e-05
7.2614e-22
-5e-05
-8.49283e-23
-5e-05
-4.50546e-21
-5e-05
-6.79889e-21
-5.07935e-21
-5e-05
1.98366e-18
-5e-05
-4.3906e-19
-5e-05
1.02169e-19
-5e-05
-2.20148e-20
-5e-05
1.01329e-20
-5e-05
4.93156e-21
-5e-05
6.11054e-22
-5e-05
-1.55519e-21
-5e-05
-9.1455e-22
-5e-05
3.0891e-21
-5e-05
7.83019e-22
-5e-05
3.11144e-21
-5e-05
5.13169e-21
-5e-05
1.70588e-21
-5e-05
-3.4338e-21
-5e-05
-7.06037e-21
-5e-05
-3.90043e-21
-5e-05
-5.01456e-21
-5e-05
-5.65207e-21
-2.32215e-21
-5e-05
-1.7201e-18
-5e-05
3.54166e-19
-5e-05
-8.23474e-20
-5e-05
1.42623e-20
-5e-05
-5.19387e-21
-5e-05
8.49648e-22
-5e-05
-1.18144e-21
-5e-05
-1.04869e-21
-5e-05
-3.0754e-21
-5e-05
-2.68086e-22
-5e-05
2.82834e-21
-5e-05
9.17088e-21
-5e-05
8.87479e-21
-5e-05
5.30993e-22
-5e-05
-4.51235e-21
-5e-05
-7.05377e-21
-5e-05
-5.80157e-21
-5e-05
-3.35767e-21
-5e-05
-1.28313e-21
2.85199e-22
-5e-05
4.25972e-19
-5e-05
-6.67982e-20
-5e-05
1.90769e-20
-5e-05
-3.80702e-21
-5e-05
2.74919e-22
-5e-05
-3.36211e-22
-5e-05
9.2427e-23
-5e-05
3.04497e-21
-5e-05
3.15071e-21
-5e-05
2.5496e-21
-5e-05
7.14977e-21
-5e-05
7.92436e-21
-5e-05
4.26196e-21
-5e-05
-2.95169e-21
-5e-05
-4.1278e-21
-5e-05
-1.51291e-21
-5e-05
-8.66532e-22
-5e-05
1.04797e-21
-5e-05
1.73462e-21
4.52414e-22
-5e-05
1.47251e-18
-5e-05
-2.92468e-19
-5e-05
7.76699e-20
-5e-05
-1.0163e-20
-5e-05
8.27351e-21
-5e-05
1.82359e-21
-5e-05
2.30856e-21
-5e-05
5.96527e-21
-5e-05
9.53554e-21
-5e-05
7.50512e-21
-5e-05
4.28497e-21
-5e-05
-5.18208e-21
-5e-05
-7.64305e-21
-5e-05
-4.03354e-21
-5e-05
-1.70305e-21
-5e-05
2.53209e-21
-5e-05
3.7892e-21
-5e-05
3.34115e-21
-5e-05
2.20296e-21
6.5539e-23
-5e-05
-1.77234e-18
-5e-05
3.66172e-19
-5e-05
-7.92327e-20
-5e-05
2.36919e-20
-5e-05
1.48292e-21
-5e-05
3.34762e-21
-5e-05
3.58106e-21
-5e-05
3.41784e-21
-5e-05
2.71111e-21
-5e-05
1.3587e-21
-5e-05
-4.67877e-21
-5e-05
-8.99249e-21
-5e-05
-4.9153e-21
-5e-05
3.05436e-21
-5e-05
3.08836e-21
-5e-05
2.70551e-21
-5e-05
1.06958e-21
-5e-05
7.63812e-22
-5e-05
3.10878e-21
6.71378e-22
-5e-05
6.5676e-19
-5e-05
-1.35014e-19
-5e-05
3.10811e-20
-5e-05
-3.10066e-22
-5e-05
6.1349e-21
-5e-05
6.36207e-21
-5e-05
6.71644e-21
-5e-05
1.0108e-21
-5e-05
-3.0226e-21
-5e-05
-1.01635e-21
-5e-05
-4.04131e-21
-5e-05
-5.15897e-21
-5e-05
-2.85296e-21
-5e-05
-1.06647e-22
-5e-05
2.49421e-21
-5e-05
4.04308e-21
-5e-05
2.7849e-21
-5e-05
7.4392e-22
-5e-05
8.60949e-22
1.79691e-22
-5e-05
1.35685e-19
-5e-05
-2.00698e-20
-5e-05
6.53643e-21
-5e-05
4.94791e-21
-5e-05
6.31208e-21
-5e-05
6.92885e-21
-5e-05
5.80358e-21
-5e-05
1.0216e-21
-5e-05
-2.0166e-22
-5e-05
3.07239e-21
-5e-05
2.52257e-21
-5e-05
-4.12591e-21
-5e-05
-5.31328e-21
-5e-05
-1.83245e-21
-5e-05
4.3188e-21
-5e-05
4.34676e-21
-5e-05
2.26963e-21
-5e-05
-5.68268e-22
-5e-05
-1.6169e-21
-3.36642e-22
-5e-05
-7.57778e-19
-5e-05
1.62341e-19
-5e-05
-2.93264e-20
-5e-05
1.22386e-20
-5e-05
1.22036e-21
-5e-05
3.95137e-22
-5e-05
1.84959e-21
-5e-05
1.586e-21
-5e-05
2.17605e-21
-5e-05
2.09294e-21
-5e-05
1.65457e-21
-5e-05
-1.99265e-21
-5e-05
-2.29712e-21
-5e-05
3.75141e-21
-5e-05
7.69817e-21
-5e-05
2.4219e-21
-5e-05
-8.07858e-22
-5e-05
8.31125e-22
-5e-05
1.64565e-21
1.54707e-21
-5e-05
1.23308e-18
-5e-05
-2.47982e-19
-5e-05
6.70652e-20
-5e-05
-1.2465e-20
-5e-05
1.20156e-21
-5e-05
8.27923e-22
-5e-05
4.71121e-21
-5e-05
3.95255e-21
-5e-05
-4.44399e-22
-5e-05
-6.91085e-21
-5e-05
-8.17978e-21
-5e-05
-3.32758e-21
-5e-05
-5.94428e-23
-5e-05
1.69568e-21
-5e-05
2.12175e-22
-5e-05
-9.85102e-22
-5e-05
-1.22409e-21
-5e-05
6.1352e-22
-5e-05
-6.79204e-22
3.04341e-22
-5e-05
-1.14411e-18
-5e-05
2.51295e-19
-5e-05
-5.25692e-20
-5e-05
1.03835e-20
-5e-05
-4.26425e-21
-5e-05
1.89819e-21
-5e-05
-2.93247e-22
-5e-05
6.43701e-22
-5e-05
-2.67938e-21
-5e-05
-9.21275e-21
-5e-05
-7.11512e-21
-5e-05
-2.25314e-21
-5e-05
-6.30956e-22
-5e-05
-2.28095e-21
-5e-05
-4.60347e-21
-5e-05
-7.79514e-22
-5e-05
-7.88646e-22
-5e-05
-3.95149e-21
-5e-05
-8.03856e-21
-4.93256e-21
-5e-05
4.35007e-19
-5e-05
-9.73978e-20
-5e-05
2.43663e-20
-5e-05
-3.44748e-21
-5e-05
2.85285e-21
-5e-05
1.4226e-21
-5e-05
-4.62617e-21
-5e-05
-7.53019e-21
-5e-05
-5.58883e-21
-5e-05
-4.17638e-21
-5e-05
-5.30389e-23
-5e-05
-2.89774e-22
-5e-05
-2.7752e-21
-5e-05
-3.93914e-21
-5e-05
-1.63031e-21
-5e-05
1.26213e-22
-5e-05
2.52817e-22
-5e-05
-2.98696e-21
-5e-05
-5.82976e-21
-5.14735e-21
-5e-05
5.95754e-19
-5e-05
-1.28645e-19
-5e-05
3.13519e-20
-5e-05
-5.95762e-21
-5e-05
3.68162e-22
-5e-05
-6.72183e-22
-5e-05
-3.29124e-21
-5e-05
-9.06876e-21
-5e-05
-7.11626e-21
-5e-05
-3.41416e-21
-5e-05
-4.23742e-21
-5e-05
-2.13789e-21
-5e-05
7.58283e-22
-5e-05
-6.63942e-22
-5e-05
-3.78797e-22
-5e-05
-1.50101e-21
-5e-05
-8.14738e-22
-5e-05
-5.78092e-22
-5e-05
1.95053e-22
-1.98662e-21
-5e-05
-1.63821e-18
-5e-05
3.62521e-19
-5e-05
-8.15354e-20
-5e-05
1.60735e-20
-5e-05
-1.27788e-20
-5e-05
-1.09163e-20
-5e-05
-9.8508e-21
-5e-05
-6.19911e-21
-5e-05
-3.46074e-21
-5e-05
-3.20949e-21
-5e-05
-6.98857e-21
-5e-05
-4.65025e-22
-5e-05
5.26709e-21
-5e-05
2.49762e-21
-5e-05
9.07373e-22
-5e-05
7.75999e-22
-5e-05
-7.36191e-22
-5e-05
5.60313e-22
-5e-05
1.33203e-21
-1.28471e-21
-5e-05
1.76082e-18
-5e-05
-3.5907e-19
-5e-05
8.4353e-20
-5e-05
-1.93716e-20
-5e-05
-1.98908e-21
-5e-05
-1.20224e-20
-5e-05
-1.09284e-20
-5e-05
-4.63167e-21
-5e-05
-1.36035e-21
-5e-05
-2.48002e-21
-5e-05
-2.13721e-21
-5e-05
2.6261e-21
-5e-05
4.17387e-21
-5e-05
3.40809e-21
-5e-05
2.92368e-21
-5e-05
7.39599e-22
-5e-05
-2.37688e-21
-5e-05
3.06558e-22
-5e-05
7.67845e-22
-2.94992e-22
-5e-05
1.17483e-18
-5e-05
-2.68762e-19
-5e-05
5.89058e-20
-5e-05
-1.70652e-20
-5e-05
1.68084e-21
-5e-05
-7.71496e-21
-5e-05
-1.02208e-20
-5e-05
-8.75131e-21
-5e-05
-4.65509e-21
-5e-05
-2.87453e-21
-5e-05
3.25753e-21
-5e-05
3.25276e-21
-5e-05
-3.27154e-22
-5e-05
1.39291e-21
-5e-05
1.32135e-21
-5e-05
-2.39238e-21
-5e-05
-3.99843e-21
-5e-05
-1.35514e-21
-5e-05
-5.24453e-22
9.25279e-22
-5e-05
-2.92515e-18
-5e-05
6.01516e-19
-5e-05
-1.44958e-19
-5e-05
2.58071e-20
-5e-05
-9.42096e-21
-5e-05
-4.98657e-21
-5e-05
-8.89377e-21
-5e-05
-8.02892e-21
-5e-05
-4.89376e-21
-5e-05
-2.4526e-21
-5e-05
3.46744e-21
-5e-05
1.40081e-21
-5e-05
-4.06787e-21
-5e-05
-4.31484e-21
-5e-05
-2.74235e-21
-5e-05
-3.57862e-21
-5e-05
-1.76303e-21
-5e-05
-1.24439e-21
-5e-05
-1.69457e-21
1.66186e-23
-5e-05
-5e-05
-5e-05
-5e-05
-5e-05
-5e-05
-5e-05
-5e-05
-5e-05
-5e-05
-5e-05
-5e-05
-5e-05
-5e-05
-5e-05
-5e-05
-5e-05
-5e-05
-5e-05
)
;

boundaryField
{
    movingWall
    {
        type            calculated;
        value           uniform -0;
    }
    fixedWalls
    {
        type            calculated;
        value           nonuniform List<scalar> 
60
(
5e-05
5e-05
5e-05
5e-05
5e-05
5e-05
5e-05
5e-05
5e-05
5e-05
5e-05
5e-05
5e-05
5e-05
5e-05
5e-05
5e-05
5e-05
5e-05
5e-05
-5e-05
-5e-05
-5e-05
-5e-05
-5e-05
-5e-05
-5e-05
-5e-05
-5e-05
-5e-05
-5e-05
-5e-05
-5e-05
-5e-05
-5e-05
-5e-05
-5e-05
-5e-05
-5e-05
-5e-05
0
0
0
0
0
0
0
0
0
0
0
0
0
0
0
0
0
0
0
0
)
;
    }
    frontAndBack
    {
        type            empty;
    }
}


// ************************************************************************* //
