/*--------------------------------*- C++ -*----------------------------------*\
| =========                 |                                                 |
| \\      /  F ield         | OpenFOAM: The Open Source CFD Toolbox           |
|  \\    /   O peration     | Version:  2506                                  |
|   \\  /    A nd           | Website:  www.openfoam.com                      |
|    \\/     M anipulation  |                                                 |
\*---------------------------------------------------------------------------*/
FoamFile
{
    version     2.0;
    format      ascii;
    arch        "LSB;label=32;scalar=64";
    class       volTensorField;
    location    "6";
    object      gradU;
}
// * * * * * * * * * * * * * * * * * * * * * * * * * * * * * * * * * * * * * //

dimensions      [0 0 -1 0 0 0 0];

internalField   nonuniform List<tensor> 
400
(
(-8.40257e-13 8.95499e-12 0 8.40257e-13 1.43067e-11 0 0 0 0)
(1.35525e-12 -1.07696e-11 0 -2.1684e-13 -3.01733e-12 0 0 0 0)
(-4.33681e-13 2.28467e-12 0 2.71051e-14 7.52694e-13 0 0 0 0)
(2.71051e-14 -5.42165e-13 0 -2.71051e-14 -1.36648e-13 0 0 0 0)
(0 1.1665e-13 0 8.13152e-14 3.1101e-14 0 0 0 0)
(-2.71051e-14 -1.41936e-14 0 2.71051e-14 -1.44168e-15 0 0 0 0)
(-2.71051e-14 6.53839e-15 0 5.42101e-14 2.52382e-14 0 0 0 0)
(-2.71051e-14 -1.19086e-14 0 2.71051e-14 2.90891e-14 0 0 0 0)
(-2.71051e-14 -1.36589e-14 0 2.71051e-14 2.68479e-14 0 0 0 0)
(-5.42101e-14 -5.5071e-15 0 0 1.08826e-14 0 0 0 0)
(5.42101e-14 -4.34083e-16 0 2.71051e-14 8.90972e-15 0 0 0 0)
(0 -5.79743e-15 0 0 2.45347e-15 0 0 0 0)
(-5.42101e-14 -4.06867e-15 0 5.42101e-14 -1.097e-14 0 0 0 0)
(5.42101e-14 2.32697e-15 0 -5.42101e-14 -7.66718e-15 0 0 0 0)
(0 3.82591e-15 0 2.71051e-14 6.69593e-15 0 0 0 0)
(-5.42101e-14 -8.30587e-15 0 0 1.60607e-14 0 0 0 0)
(0 -1.08082e-14 0 0 -4.01214e-15 0 0 0 0)
(5.42101e-14 1.29621e-14 0 0 -1.18573e-14 0 0 0 0)
(0 7.58897e-15 0 0 2.54279e-15 0 0 0 0)
(0 -3.1319e-15 0 0 -1.08434e-14 0 0 0 0)
(1.54499e-12 2.33434e-12 0 1.0571e-12 -2.37628e-11 0 0 0 0)
(-2.19551e-12 -2.78439e-12 0 -3.79471e-13 5.09429e-12 0 0 0 0)
(5.42101e-13 5.96012e-13 0 -8.13152e-14 -1.22221e-12 0 0 0 0)
(5.42101e-14 -1.79428e-13 0 0 2.38744e-13 0 0 0 0)
(2.71051e-14 1.85566e-14 0 -1.0842e-13 -7.30127e-14 0 0 0 0)
(0 8.33081e-15 0 -8.13152e-14 -9.43184e-15 0 0 0 0)
(8.13152e-14 2.39924e-14 0 -1.0842e-13 -2.86749e-14 0 0 0 0)
(2.71051e-14 1.35184e-14 0 -2.71051e-14 -1.77596e-14 0 0 0 0)
(0 -4.5476e-15 0 0 -2.058e-15 0 0 0 0)
(0 -1.24311e-14 0 0 3.17085e-15 0 0 0 0)
(0 -7.99504e-15 0 -2.71051e-14 -7.67454e-16 0 0 0 0)
(0 -1.40823e-14 0 0 1.57657e-15 0 0 0 0)
(0 -6.05198e-15 0 -5.42101e-14 5.89844e-15 0 0 0 0)
(-2.71051e-14 1.53389e-14 0 0 8.77398e-15 0 0 0 0)
(2.71051e-14 1.9902e-14 0 -2.71051e-14 1.22467e-14 0 0 0 0)
(0 -2.40219e-15 0 -5.42101e-14 1.21321e-14 0 0 0 0)
(-2.71051e-14 -1.71098e-14 0 0 1.41712e-14 0 0 0 0)
(-8.13152e-14 -6.40715e-15 0 0 4.46553e-15 0 0 0 0)
(0 -6.57506e-15 0 0 -1.75044e-14 0 0 0 0)
(5.42101e-14 1.14325e-14 0 0 -1.04925e-14 0 0 0 0)
(-1.89735e-13 -9.71351e-12 0 -3.98444e-12 5.03254e-12 0 0 0 0)
(2.43945e-13 1.1771e-11 0 1.13841e-12 -1.09508e-12 0 0 0 0)
(-5.42101e-14 -2.57088e-12 0 -2.71051e-14 2.20038e-13 0 0 0 0)
(2.71051e-14 6.07032e-13 0 8.13152e-14 -5.24092e-14 0 0 0 0)
(-2.71051e-14 -1.31525e-13 0 0 4.21353e-14 0 0 0 0)
(-8.13152e-14 3.01443e-14 0 -2.71051e-14 2.63299e-14 0 0 0 0)
(0 -1.78937e-15 0 -2.71051e-14 9.44108e-16 0 0 0 0)
(0 1.47082e-14 0 -8.13152e-14 -1.57838e-14 0 0 0 0)
(2.71051e-14 7.27157e-15 0 -1.0842e-13 -1.80801e-14 0 0 0 0)
(0 -4.21655e-15 0 -5.42101e-14 -3.1875e-15 0 0 0 0)
(0 -2.02837e-15 0 -8.13152e-14 -5.28708e-15 0 0 0 0)
(0 8.68467e-16 0 -5.42101e-14 1.84438e-15 0 0 0 0)
(-2.71051e-14 3.12874e-15 0 -8.13152e-14 1.95908e-14 0 0 0 0)
(0 8.67521e-15 0 -2.71051e-14 1.35672e-14 0 0 0 0)
(0 7.18401e-15 0 -8.13152e-14 -9.29209e-15 0 0 0 0)
(0 -6.38138e-15 0 -2.71051e-14 -2.52882e-14 0 0 0 0)
(2.71051e-14 -1.84747e-14 0 -5.42101e-14 -1.04987e-14 0 0 0 0)
(5.42101e-14 -1.87135e-14 0 -5.42101e-14 -1.06301e-14 0 0 0 0)
(2.71051e-14 -7.36902e-15 0 2.71051e-14 -1.22339e-14 0 0 0 0)
(-2.71051e-14 2.4865e-14 0 2.71051e-14 1.01845e-15 0 0 0 0)
(-1.35525e-12 6.27181e-12 0 1.30104e-12 1.23582e-11 0 0 0 0)
(1.78893e-12 -7.5969e-12 0 -4.33681e-13 -2.73812e-12 0 0 0 0)
(-5.14996e-13 1.63868e-12 0 -5.42101e-14 6.58152e-13 0 0 0 0)
(0 -3.57331e-13 0 -2.71051e-14 -1.37745e-13 0 0 0 0)
(-2.71051e-14 9.72958e-14 0 5.42101e-14 4.03081e-14 0 0 0 0)
(0 -3.28604e-14 0 8.13152e-14 4.26985e-15 0 0 0 0)
(0 -1.81214e-14 0 8.13152e-14 4.93679e-15 0 0 0 0)
(0 -5.5058e-15 0 8.13152e-14 -1.76642e-15 0 0 0 0)
(2.71051e-14 8.04874e-15 0 8.13152e-14 -1.03681e-14 0 0 0 0)
(0 3.61871e-16 0 1.0842e-13 1.49043e-15 0 0 0 0)
(-2.71051e-14 -2.96317e-15 0 8.13152e-14 2.76893e-16 0 0 0 0)
(0 1.07956e-14 0 0 6.57135e-15 0 0 0 0)
(2.71051e-14 5.67081e-15 0 8.13152e-14 6.00747e-15 0 0 0 0)
(-2.71051e-14 -1.3544e-14 0 2.71051e-14 -7.85045e-15 0 0 0 0)
(0 -1.89534e-14 0 8.13152e-14 -2.33857e-14 0 0 0 0)
(8.13152e-14 -3.60885e-15 0 2.71051e-14 -3.1146e-14 0 0 0 0)
(2.71051e-14 -2.45172e-15 0 8.13152e-14 -1.5262e-14 0 0 0 0)
(-2.71051e-14 -8.14231e-15 0 8.13152e-14 -2.0364e-15 0 0 0 0)
(2.71051e-14 5.07346e-15 0 0 4.58727e-15 0 0 0 0)
(-2.71051e-14 2.2648e-14 0 0 1.10288e-14 0 0 0 0)
(6.50521e-13 -9.34207e-14 0 2.05998e-12 -1.4815e-11 0 0 0 0)
(-1.16552e-12 7.09444e-14 0 -4.33681e-13 3.17291e-12 0 0 0 0)
(4.06576e-13 2.95033e-14 0 2.1684e-13 -7.38064e-13 0 0 0 0)
(8.13152e-14 -1.08112e-14 0 2.71051e-14 1.45108e-13 0 0 0 0)
(5.42101e-14 1.04896e-14 0 8.13152e-14 -6.13072e-14 0 0 0 0)
(2.71051e-14 -5.22709e-15 0 5.42101e-14 -1.63277e-14 0 0 0 0)
(2.71051e-14 -7.82564e-15 0 8.13152e-14 -7.16999e-15 0 0 0 0)
(-2.71051e-14 -5.96617e-16 0 5.42101e-14 2.02603e-15 0 0 0 0)
(0 1.05284e-14 0 5.42101e-14 -8.64342e-15 0 0 0 0)
(2.71051e-14 6.42841e-15 0 2.71051e-14 -1.34287e-14 0 0 0 0)
(-2.71051e-14 3.05254e-15 0 5.42101e-14 8.1813e-15 0 0 0 0)
(-2.71051e-14 6.59904e-15 0 1.0842e-13 2.42378e-14 0 0 0 0)
(-2.71051e-14 -1.12931e-14 0 5.42101e-14 1.49724e-14 0 0 0 0)
(2.71051e-14 -2.0718e-14 0 1.0842e-13 -4.69955e-15 0 0 0 0)
(0 -1.61116e-14 0 5.42101e-14 -4.31423e-15 0 0 0 0)
(-5.42101e-14 1.74231e-15 0 8.13152e-14 2.64195e-17 0 0 0 0)
(5.42101e-14 1.06349e-14 0 -2.71051e-14 -7.60456e-15 0 0 0 0)
(0 1.13576e-15 0 0 6.62757e-15 0 0 0 0)
(0 5.69619e-15 0 0 1.74758e-14 0 0 0 0)
(-5.42101e-14 9.24892e-15 0 -2.71051e-14 1.04294e-14 0 0 0 0)
(2.98156e-13 -5.37033e-12 0 -1.19262e-12 8.5843e-12 0 0 0 0)
(-5.42101e-14 6.48008e-12 0 4.87891e-13 -1.68386e-12 0 0 0 0)
(-5.42101e-14 -1.38912e-12 0 1.0842e-13 4.05697e-13 0 0 0 0)
(-1.0842e-13 3.19425e-13 0 2.71051e-14 -7.22773e-14 0 0 0 0)
(0 -6.41403e-14 0 -2.71051e-14 2.18751e-14 0 0 0 0)
(-2.71051e-14 2.12768e-14 0 0 -4.74344e-15 0 0 0 0)
(0 2.32296e-16 0 -2.71051e-14 5.09548e-15 0 0 0 0)
(0 -6.97923e-15 0 0 1.63746e-14 0 0 0 0)
(-2.71051e-14 -7.40602e-15 0 -5.42101e-14 2.49045e-14 0 0 0 0)
(2.71051e-14 1.71866e-14 0 -5.42101e-14 1.12707e-14 0 0 0 0)
(-2.71051e-14 3.47033e-14 0 -1.0842e-13 1.72857e-14 0 0 0 0)
(2.71051e-14 1.75867e-14 0 -1.0842e-13 -4.98612e-15 0 0 0 0)
(2.71051e-14 -2.32665e-14 0 0 -1.84513e-14 0 0 0 0)
(-2.71051e-14 -3.28306e-14 0 0 -1.39307e-14 0 0 0 0)
(0 -1.42274e-14 0 0 1.53822e-15 0 0 0 0)
(-2.71051e-14 -6.89918e-15 0 2.71051e-14 2.21634e-14 0 0 0 0)
(-2.71051e-14 4.14944e-15 0 5.42101e-14 1.97402e-14 0 0 0 0)
(0 1.6938e-14 0 -2.71051e-14 1.76226e-14 0 0 0 0)
(0 8.87529e-15 0 -2.71051e-14 1.2071e-14 0 0 0 0)
(0 -5.25719e-15 0 0 6.68863e-16 0 0 0 0)
(-5.42101e-14 6.80702e-12 0 -3.79471e-13 4.18614e-12 0 0 0 0)
(1.89735e-13 -8.10766e-12 0 -1.6263e-13 -9.02677e-13 0 0 0 0)
(-8.13152e-14 1.64108e-12 0 -2.71051e-13 2.34372e-13 0 0 0 0)
(-2.71051e-14 -3.94633e-13 0 -5.42101e-14 -2.54238e-14 0 0 0 0)
(0 7.80235e-14 0 -1.0842e-13 3.19944e-14 0 0 0 0)
(2.71051e-14 -2.20068e-14 0 -1.0842e-13 8.63919e-15 0 0 0 0)
(-2.71051e-14 1.32924e-14 0 -1.0842e-13 8.86452e-15 0 0 0 0)
(-2.71051e-14 1.92124e-14 0 -1.0842e-13 1.16812e-14 0 0 0 0)
(0 5.42454e-15 0 -8.13152e-14 2.55393e-14 0 0 0 0)
(-5.42101e-14 -1.19036e-15 0 -8.13152e-14 1.98221e-14 0 0 0 0)
(-2.71051e-14 -1.32043e-14 0 0 -1.14592e-14 0 0 0 0)
(2.71051e-14 -2.9138e-14 0 0 -5.24257e-14 0 0 0 0)
(1.0842e-13 -2.02377e-14 0 0 -4.762e-14 0 0 0 0)
(0 -7.28413e-16 0 -2.71051e-14 -4.32741e-15 0 0 0 0)
(0 1.99825e-14 0 -5.42101e-14 9.69901e-15 0 0 0 0)
(0 1.99442e-14 0 -5.42101e-14 1.618e-14 0 0 0 0)
(0 6.09411e-15 0 -5.42101e-14 1.86229e-14 0 0 0 0)
(-5.42101e-14 -6.5334e-15 0 -5.42101e-14 9.17269e-15 0 0 0 0)
(2.71051e-14 -1.12575e-14 0 0 1.87338e-15 0 0 0 0)
(-2.71051e-14 -3.49094e-15 0 2.71051e-14 -1.5475e-15 0 0 0 0)
(-2.71051e-13 -2.08687e-12 0 5.42101e-13 -1.29794e-11 0 0 0 0)
(8.13152e-14 2.52831e-12 0 -1.0842e-13 2.63456e-12 0 0 0 0)
(5.42101e-14 -5.11866e-13 0 8.13152e-14 -6.2761e-13 0 0 0 0)
(8.13152e-14 1.17048e-13 0 0 1.3542e-13 0 0 0 0)
(-2.71051e-14 -3.00773e-14 0 0 -2.71624e-14 0 0 0 0)
(0 -1.85306e-15 0 0 6.09613e-15 0 0 0 0)
(-5.42101e-14 3.27432e-15 0 0 5.09001e-15 0 0 0 0)
(0 9.69555e-15 0 0 -1.01897e-14 0 0 0 0)
(5.42101e-14 7.3483e-16 0 2.71051e-14 -2.72977e-14 0 0 0 0)
(2.71051e-14 -1.98119e-14 0 5.42101e-14 -2.45857e-14 0 0 0 0)
(5.42101e-14 -3.75445e-14 0 1.0842e-13 -3.5855e-14 0 0 0 0)
(2.71051e-14 -1.85741e-14 0 8.13152e-14 -1.52416e-14 0 0 0 0)
(0 2.48318e-14 0 -2.71051e-14 1.0911e-14 0 0 0 0)
(-8.13152e-14 2.44884e-14 0 -2.71051e-14 2.83516e-14 0 0 0 0)
(-2.71051e-14 6.27997e-15 0 0 1.91656e-14 0 0 0 0)
(0 2.02476e-15 0 0 6.93695e-16 0 0 0 0)
(0 -2.85787e-15 0 -5.42101e-14 -1.08785e-14 0 0 0 0)
(8.13152e-14 1.88434e-16 0 5.42101e-14 -1.03093e-14 0 0 0 0)
(0 -1.84491e-15 0 0 3.62326e-15 0 0 0 0)
(0 -5.58307e-15 0 -2.71051e-14 2.42335e-15 0 0 0 0)
(4.33681e-13 -3.53779e-12 0 1.89735e-13 9.71639e-12 0 0 0 0)
(-3.25261e-13 4.2441e-12 0 8.13152e-14 -2.00474e-12 0 0 0 0)
(0 -8.58055e-13 0 1.35525e-13 4.41255e-13 0 0 0 0)
(-1.0842e-13 2.05815e-13 0 0 -9.60079e-14 0 0 0 0)
(5.42101e-14 -5.12999e-14 0 1.0842e-13 1.86079e-14 0 0 0 0)
(0 1.02456e-14 0 1.0842e-13 1.20578e-14 0 0 0 0)
(0 -2.99342e-15 0 5.42101e-14 1.25415e-14 0 0 0 0)
(0 -1.31754e-14 0 1.0842e-13 -9.62817e-15 0 0 0 0)
(0 -8.97142e-15 0 1.0842e-13 -2.29348e-14 0 0 0 0)
(0 -9.7476e-15 0 2.71051e-14 -9.5002e-15 0 0 0 0)
(0 -3.86029e-15 0 -2.71051e-14 2.54984e-15 0 0 0 0)
(-2.71051e-14 1.7628e-14 0 -8.13152e-14 1.53341e-14 0 0 0 0)
(-2.71051e-14 2.33556e-14 0 -2.71051e-14 8.24938e-15 0 0 0 0)
(5.42101e-14 7.52619e-15 0 0 -1.2644e-14 0 0 0 0)
(0 -7.67537e-15 0 0 -2.3766e-15 0 0 0 0)
(0 -1.00999e-14 0 0 5.35027e-15 0 0 0 0)
(0 -4.90893e-15 0 5.42101e-14 6.86127e-15 0 0 0 0)
(-2.71051e-14 7.96836e-15 0 0 -7.9568e-17 0 0 0 0)
(0 1.47517e-15 0 2.71051e-14 -8.99132e-15 0 0 0 0)
(-2.71051e-14 -9.53756e-15 0 0 -1.96674e-15 0 0 0 0)
(0 5.62477e-12 0 -1.19262e-12 -2.0843e-12 0 0 0 0)
(0 -6.74682e-12 0 1.89735e-13 4.59777e-13 0 0 0 0)
(2.71051e-14 1.39687e-12 0 -1.89735e-13 -9.81785e-14 0 0 0 0)
(2.71051e-14 -3.05599e-13 0 5.42101e-14 2.10319e-14 0 0 0 0)
(-2.71051e-14 7.79884e-14 0 0 7.08726e-16 0 0 0 0)
(-2.71051e-14 -7.91947e-15 0 0 2.26714e-15 0 0 0 0)
(0 -1.84116e-14 0 5.42101e-14 -3.65146e-15 0 0 0 0)
(2.71051e-14 -2.57808e-14 0 2.71051e-14 4.31841e-17 0 0 0 0)
(-2.71051e-14 8.62802e-16 0 2.71051e-14 1.12838e-14 0 0 0 0)
(0 5.67274e-15 0 0 1.6355e-14 0 0 0 0)
(-8.13152e-14 -1.27102e-14 0 0 2.62555e-14 0 0 0 0)
(2.71051e-14 -1.28746e-14 0 5.42101e-14 4.13223e-15 0 0 0 0)
(0 -3.14631e-15 0 5.42101e-14 -9.8413e-15 0 0 0 0)
(0 1.38625e-14 0 2.71051e-14 -6.9032e-15 0 0 0 0)
(-2.71051e-14 2.42743e-14 0 -5.42101e-14 7.29837e-15 0 0 0 0)
(2.71051e-14 1.12626e-14 0 -5.42101e-14 1.21473e-15 0 0 0 0)
(0 -8.2877e-15 0 0 -2.06107e-15 0 0 0 0)
(0 -1.56642e-14 0 0 -5.24875e-15 0 0 0 0)
(5.42101e-14 -3.73209e-15 0 0 -9.91141e-15 0 0 0 0)
(0 5.375e-15 0 0 -2.06533e-15 0 0 0 0)
(-5.69206e-13 -5.16231e-12 0 1.0842e-12 -3.57385e-12 0 0 0 0)
(7.04731e-13 6.23022e-12 0 -1.6263e-13 7.29644e-13 0 0 0 0)
(-1.35525e-13 -1.2968e-12 0 5.42101e-14 -1.43451e-13 0 0 0 0)
(8.13152e-14 3.04702e-13 0 -1.35525e-13 2.91627e-14 0 0 0 0)
(0 -7.00646e-14 0 -2.71051e-14 -2.03669e-14 0 0 0 0)
(2.71051e-14 5.88544e-15 0 -5.42101e-14 -2.61349e-14 0 0 0 0)
(2.71051e-14 -5.21738e-15 0 -5.42101e-14 -1.5816e-14 0 0 0 0)
(2.71051e-14 1.75986e-15 0 -1.35525e-13 2.2576e-15 0 0 0 0)
(-8.13152e-14 7.34039e-15 0 -1.35525e-13 9.51083e-15 0 0 0 0)
(0 5.22418e-15 0 -8.13152e-14 -3.91781e-15 0 0 0 0)
(0 -1.60831e-14 0 -2.71051e-14 -3.47199e-15 0 0 0 0)
(0 -1.84688e-14 0 2.71051e-14 8.53304e-15 0 0 0 0)
(0 1.23202e-14 0 -2.71051e-14 1.20646e-14 0 0 0 0)
(-2.71051e-14 2.46659e-14 0 -8.13152e-14 2.23354e-14 0 0 0 0)
(-2.71051e-14 4.42551e-16 0 5.42101e-14 1.35175e-14 0 0 0 0)
(0 -1.94593e-14 0 5.42101e-14 -7.69944e-15 0 0 0 0)
(2.71051e-14 -1.13724e-14 0 2.71051e-14 -1.231e-14 0 0 0 0)
(-2.71051e-14 1.18016e-16 0 0 5.59757e-15 0 0 0 0)
(0 4.65859e-15 0 -2.71051e-14 1.30502e-14 0 0 0 0)
(-2.71051e-14 2.43918e-15 0 2.71051e-14 7.53483e-15 0 0 0 0)
(9.48677e-13 2.78056e-12 0 -5.96311e-13 7.96345e-12 0 0 0 0)
(-1.02999e-12 -3.31642e-12 0 -8.13152e-14 -1.64129e-12 0 0 0 0)
(2.71051e-14 6.9639e-13 0 -8.13152e-14 3.85566e-13 0 0 0 0)
(-1.35525e-13 -1.82515e-13 0 -1.0842e-13 -9.88145e-14 0 0 0 0)
(1.0842e-13 2.26908e-14 0 -1.0842e-13 -7.51734e-17 0 0 0 0)
(-5.42101e-14 -3.36852e-15 0 -8.13152e-14 1.73114e-15 0 0 0 0)
(-5.42101e-14 9.98081e-15 0 -8.13152e-14 1.14465e-14 0 0 0 0)
(-2.71051e-14 -4.54011e-16 0 -2.71051e-14 9.4662e-15 0 0 0 0)
(2.71051e-14 -5.31261e-15 0 -8.13152e-14 -1.04818e-14 0 0 0 0)
(5.42101e-14 -7.31008e-15 0 -8.13152e-14 -3.60152e-14 0 0 0 0)
(5.42101e-14 -2.59317e-16 0 -8.13152e-14 -3.93374e-14 0 0 0 0)
(2.71051e-14 2.66206e-15 0 -1.0842e-13 -5.33971e-15 0 0 0 0)
(-2.71051e-14 1.06561e-14 0 -8.13152e-14 8.95073e-15 0 0 0 0)
(0 1.53153e-14 0 -8.13152e-14 -8.22294e-15 0 0 0 0)
(2.71051e-14 -5.76061e-15 0 -8.13152e-14 -2.9944e-14 0 0 0 0)
(5.42101e-14 -1.45648e-14 0 -8.13152e-14 -1.3628e-14 0 0 0 0)
(0 5.00931e-15 0 -8.13152e-14 -1.66494e-15 0 0 0 0)
(0 9.69602e-15 0 -5.42101e-14 -8.7042e-16 0 0 0 0)
(2.71051e-14 -1.79482e-15 0 -5.42101e-14 -9.29942e-15 0 0 0 0)
(-2.71051e-14 -1.52101e-14 0 0 -4.97091e-15 0 0 0 0)
(-1.24683e-12 1.15985e-12 0 -4.87891e-13 -9.50878e-12 0 0 0 0)
(1.19262e-12 -1.34766e-12 0 8.13152e-14 1.99711e-12 0 0 0 0)
(-1.35525e-13 2.45678e-13 0 0 -4.78538e-13 0 0 0 0)
(1.0842e-13 -8.09397e-14 0 1.35525e-13 9.13941e-14 0 0 0 0)
(0 3.0481e-14 0 0 -2.18632e-14 0 0 0 0)
(0 1.74071e-14 0 0 4.28106e-15 0 0 0 0)
(2.71051e-14 2.51768e-15 0 0 -2.00178e-14 0 0 0 0)
(5.42101e-14 -2.01684e-14 0 8.13152e-14 -1.32354e-14 0 0 0 0)
(-8.13152e-14 -3.8141e-14 0 1.35525e-13 -8.93994e-15 0 0 0 0)
(2.71051e-14 -2.36314e-14 0 1.35525e-13 -9.2076e-15 0 0 0 0)
(0 1.45924e-14 0 1.0842e-13 4.25861e-15 0 0 0 0)
(-2.71051e-14 2.98193e-14 0 2.71051e-14 4.29776e-15 0 0 0 0)
(0 9.43694e-15 0 0 -2.28605e-15 0 0 0 0)
(-5.42101e-14 -1.42289e-14 0 8.13152e-14 -1.59065e-14 0 0 0 0)
(5.42101e-14 -4.96252e-15 0 8.13152e-14 -1.92626e-14 0 0 0 0)
(0 8.81975e-15 0 8.13152e-14 8.22352e-16 0 0 0 0)
(0 1.38518e-15 0 5.42101e-14 1.74179e-15 0 0 0 0)
(0 -7.51646e-15 0 8.13152e-14 -1.826e-14 0 0 0 0)
(2.71051e-14 5.58108e-16 0 0 -2.94374e-14 0 0 0 0)
(5.42101e-14 1.67095e-14 0 0 -2.09476e-14 0 0 0 0)
(5.42101e-13 -4.73111e-12 0 8.67362e-13 6.31647e-12 0 0 0 0)
(-5.42101e-13 5.71382e-12 0 0 -1.39477e-12 0 0 0 0)
(5.42101e-14 -1.20932e-12 0 1.35525e-13 3.07742e-13 0 0 0 0)
(-1.0842e-13 2.74159e-13 0 5.42101e-14 -5.53238e-14 0 0 0 0)
(0 -6.44222e-14 0 1.35525e-13 2.84684e-14 0 0 0 0)
(-2.71051e-14 -1.52312e-15 0 8.13152e-14 -1.90236e-15 0 0 0 0)
(2.71051e-14 -7.53563e-15 0 1.0842e-13 -1.73317e-14 0 0 0 0)
(8.13152e-14 1.06239e-14 0 2.71051e-14 -3.26956e-14 0 0 0 0)
(2.71051e-14 -1.28483e-15 0 2.71051e-14 -1.16378e-14 0 0 0 0)
(0 5.88847e-15 0 0 2.01455e-14 0 0 0 0)
(-2.71051e-14 1.3246e-14 0 2.71051e-14 2.82483e-14 0 0 0 0)
(-2.71051e-14 -3.88261e-15 0 5.42101e-14 7.85346e-15 0 0 0 0)
(0 -9.54819e-15 0 5.42101e-14 -8.57698e-15 0 0 0 0)
(5.42101e-14 -1.6612e-15 0 5.42101e-14 -6.63277e-15 0 0 0 0)
(2.71051e-14 1.09683e-14 0 5.42101e-14 1.18926e-14 0 0 0 0)
(-2.71051e-14 6.43955e-15 0 5.42101e-14 3.62291e-15 0 0 0 0)
(0 -1.40731e-14 0 5.42101e-14 4.16585e-15 0 0 0 0)
(0 -2.14832e-14 0 2.71051e-14 3.85809e-15 0 0 0 0)
(-2.71051e-14 -4.48242e-15 0 8.13152e-14 8.83522e-15 0 0 0 0)
(-2.71051e-14 3.5175e-14 0 0 -8.59134e-16 0 0 0 0)
(-4.06576e-13 6.08154e-12 0 2.1684e-13 6.42988e-13 0 0 0 0)
(5.14996e-13 -7.35639e-12 0 -2.1684e-13 -1.2499e-13 0 0 0 0)
(-8.13152e-14 1.58512e-12 0 -1.0842e-13 2.79422e-14 0 0 0 0)
(5.42101e-14 -3.60213e-13 0 0 -1.00406e-14 0 0 0 0)
(0 8.39025e-14 0 -5.42101e-14 -9.93875e-15 0 0 0 0)
(0 -2.8393e-14 0 0 -8.37912e-15 0 0 0 0)
(-2.71051e-14 -2.82755e-14 0 2.71051e-14 5.33974e-15 0 0 0 0)
(-2.71051e-14 -1.44745e-14 0 2.71051e-14 -6.15426e-15 0 0 0 0)
(-2.71051e-14 1.47001e-14 0 0 -6.10972e-15 0 0 0 0)
(0 1.62547e-14 0 0 3.04889e-15 0 0 0 0)
(2.71051e-14 2.30039e-15 0 0 -1.67375e-14 0 0 0 0)
(2.71051e-14 -7.00604e-15 0 5.42101e-14 -7.39245e-15 0 0 0 0)
(-5.42101e-14 -5.04929e-15 0 5.42101e-14 1.41339e-14 0 0 0 0)
(-5.42101e-14 6.24077e-15 0 0 1.31008e-14 0 0 0 0)
(0 5.29316e-15 0 -5.42101e-14 5.00605e-15 0 0 0 0)
(5.42101e-14 1.09295e-15 0 -2.71051e-14 -6.50887e-15 0 0 0 0)
(0 1.62036e-15 0 -2.71051e-14 -4.27022e-15 0 0 0 0)
(2.71051e-14 -2.84709e-15 0 -5.42101e-14 9.63548e-15 0 0 0 0)
(0 -4.15911e-15 0 -2.71051e-14 2.40992e-14 0 0 0 0)
(-2.71051e-14 8.73342e-15 0 -2.71051e-14 1.26429e-14 0 0 0 0)
(5.42101e-13 -4.21311e-12 0 -3.25261e-13 -8.93585e-12 0 0 0 0)
(-8.40257e-13 5.09878e-12 0 2.43945e-13 1.96467e-12 0 0 0 0)
(2.43945e-13 -1.09437e-12 0 1.0842e-13 -4.51549e-13 0 0 0 0)
(-2.71051e-14 2.36278e-13 0 0 8.81243e-14 0 0 0 0)
(0 -6.27607e-14 0 0 -5.25879e-14 0 0 0 0)
(8.13152e-14 1.37554e-14 0 0 -4.09766e-14 0 0 0 0)
(5.42101e-14 -5.31077e-15 0 0 -2.62382e-14 0 0 0 0)
(0 -8.25568e-16 0 0 1.14786e-14 0 0 0 0)
(-2.71051e-14 7.91833e-15 0 2.71051e-14 1.46221e-14 0 0 0 0)
(0 -4.73935e-15 0 5.42101e-14 8.18696e-16 0 0 0 0)
(2.71051e-14 2.8047e-15 0 0 -1.10046e-14 0 0 0 0)
(0 2.69889e-14 0 0 6.69144e-15 0 0 0 0)
(0 1.09451e-14 0 -5.42101e-14 1.80352e-14 0 0 0 0)
(-2.71051e-14 -1.07891e-14 0 0 1.26462e-14 0 0 0 0)
(2.71051e-14 -8.64142e-15 0 0 5.14468e-15 0 0 0 0)
(-2.71051e-14 -2.83672e-15 0 -2.71051e-14 9.10802e-15 0 0 0 0)
(0 2.07129e-15 0 -2.71051e-14 3.1419e-16 0 0 0 0)
(-2.71051e-14 6.88626e-15 0 2.71051e-14 4.55362e-15 0 0 0 0)
(0 -1.47498e-15 0 0 4.54791e-15 0 0 0 0)
(0 -1.56717e-15 0 0 2.80764e-15 0 0 0 0)
(-5.42101e-13 -8.8964e-13 0 -1.78893e-12 1.35961e-11 0 0 0 0)
(9.75782e-13 1.12791e-12 0 4.33681e-13 -2.88637e-12 0 0 0 0)
(-2.98156e-13 -2.91418e-13 0 -1.0842e-13 6.63553e-13 0 0 0 0)
(-2.71051e-14 3.87478e-14 0 5.42101e-14 -1.4178e-13 0 0 0 0)
(-2.71051e-14 -4.51985e-14 0 2.71051e-14 4.31589e-14 0 0 0 0)
(-2.71051e-14 -2.04326e-15 0 2.71051e-14 -4.42423e-15 0 0 0 0)
(0 2.41797e-14 0 -5.42101e-14 -4.31029e-15 0 0 0 0)
(0 2.63858e-14 0 -5.42101e-14 6.26974e-15 0 0 0 0)
(0 4.04017e-15 0 -5.42101e-14 8.40157e-15 0 0 0 0)
(0 -9.37196e-15 0 0 2.91787e-15 0 0 0 0)
(-5.42101e-14 8.17314e-15 0 -5.42101e-14 1.94054e-14 0 0 0 0)
(0 2.20338e-14 0 -5.42101e-14 1.23645e-14 0 0 0 0)
(-5.42101e-14 9.05498e-16 0 0 -4.37287e-15 0 0 0 0)
(0 -6.64977e-15 0 0 3.6419e-15 0 0 0 0)
(0 1.75494e-15 0 0 8.06524e-15 0 0 0 0)
(5.42101e-14 -3.73753e-15 0 0 -1.45601e-16 0 0 0 0)
(0 -2.93403e-15 0 0 -6.56274e-15 0 0 0 0)
(0 1.38663e-15 0 -2.71051e-14 -1.01502e-15 0 0 0 0)
(0 -5.9051e-15 0 0 -2.25674e-15 0 0 0 0)
(0 1.37788e-15 0 0 3.95886e-15 0 0 0 0)
(-7.58942e-13 6.49663e-12 0 2.98156e-12 -2.34394e-12 0 0 0 0)
(7.86047e-13 -7.83377e-12 0 -8.94467e-13 3.61233e-13 0 0 0 0)
(-1.6263e-13 1.65021e-12 0 -2.71051e-14 -1.01789e-13 0 0 0 0)
(1.35525e-13 -3.84116e-13 0 -1.0842e-13 9.22561e-15 0 0 0 0)
(-5.42101e-14 7.45954e-14 0 -1.0842e-13 1.46797e-14 0 0 0 0)
(0 -3.37139e-14 0 -8.13152e-14 1.72297e-14 0 0 0 0)
(-2.71051e-14 5.3832e-15 0 -5.42101e-14 2.83015e-15 0 0 0 0)
(0 1.18863e-14 0 -8.13152e-14 -1.64786e-14 0 0 0 0)
(2.71051e-14 4.56646e-15 0 -8.13152e-14 -1.3179e-14 0 0 0 0)
(5.42101e-14 6.2645e-15 0 -5.42101e-14 -1.57804e-15 0 0 0 0)
(-5.42101e-14 1.22513e-14 0 0 2.1579e-14 0 0 0 0)
(5.42101e-14 3.21057e-15 0 -5.42101e-14 2.50664e-15 0 0 0 0)
(2.71051e-14 2.22246e-15 0 -5.42101e-14 -1.80041e-14 0 0 0 0)
(0 1.64903e-15 0 0 -8.06074e-15 0 0 0 0)
(0 -1.24289e-14 0 0 -6.40935e-15 0 0 0 0)
(-2.71051e-14 -1.74647e-14 0 2.71051e-14 -1.25279e-14 0 0 0 0)
(0 1.20187e-15 0 0 -6.48621e-15 0 0 0 0)
(0 1.11923e-14 0 -5.42101e-14 -6.6468e-15 0 0 0 0)
(2.71051e-14 3.49889e-15 0 0 -5.16919e-15 0 0 0 0)
(-2.71051e-14 -3.26929e-15 0 0 4.88108e-15 0 0 0 0)
(1.5992e-12 -2.87235e-12 0 1.89735e-13 -1.63999e-11 0 0 0 0)
(-2.08709e-12 3.37007e-12 0 1.89735e-13 3.48111e-12 0 0 0 0)
(4.33681e-13 -6.43425e-13 0 2.71051e-13 -8.15457e-13 0 0 0 0)
(-2.71051e-14 1.55216e-13 0 1.0842e-13 1.71489e-13 0 0 0 0)
(2.71051e-14 -3.71944e-14 0 1.35525e-13 -4.44072e-14 0 0 0 0)
(0 -1.38928e-14 0 1.35525e-13 1.09136e-14 0 0 0 0)
(0 -9.5286e-15 0 1.0842e-13 5.30823e-15 0 0 0 0)
(0 1.03767e-14 0 1.35525e-13 2.88959e-15 0 0 0 0)
(0 1.89407e-14 0 1.0842e-13 -9.54688e-16 0 0 0 0)
(0 2.5386e-14 0 2.71051e-14 1.6877e-15 0 0 0 0)
(0 1.22578e-14 0 2.71051e-14 8.39629e-16 0 0 0 0)
(-2.71051e-14 -1.75493e-14 0 5.42101e-14 -7.4078e-15 0 0 0 0)
(0 -9.66188e-15 0 5.42101e-14 -1.49629e-14 0 0 0 0)
(2.71051e-14 4.94498e-15 0 0 -2.2831e-14 0 0 0 0)
(5.42101e-14 -2.71225e-15 0 0 -1.62548e-14 0 0 0 0)
(0 -3.8144e-15 0 2.71051e-14 -4.74494e-15 0 0 0 0)
(0 2.94709e-15 0 0 8.94159e-15 0 0 0 0)
(0 2.70364e-15 0 5.42101e-14 4.4299e-16 0 0 0 0)
(0 5.62279e-15 0 2.71051e-14 -4.68047e-15 0 0 0 0)
(0 1.66598e-15 0 2.71051e-14 -3.63464e-15 0 0 0 0)
(-4.33681e-13 -6.42218e-12 0 -1.38236e-12 1.17006e-11 0 0 0 0)
(8.67362e-13 7.75069e-12 0 2.1684e-13 -2.40606e-12 0 0 0 0)
(-1.89735e-13 -1.65941e-12 0 -1.89735e-13 5.79833e-13 0 0 0 0)
(-5.42101e-14 3.86933e-13 0 -5.42101e-14 -1.03228e-13 0 0 0 0)
(0 -8.59803e-14 0 -5.42101e-14 3.76838e-14 0 0 0 0)
(0 1.60016e-14 0 -8.13152e-14 1.99463e-14 0 0 0 0)
(-5.42101e-14 -2.64077e-15 0 -5.42101e-14 3.55751e-14 0 0 0 0)
(-5.42101e-14 5.62337e-15 0 -5.42101e-14 3.21157e-14 0 0 0 0)
(0 3.36457e-15 0 -2.71051e-14 1.9575e-14 0 0 0 0)
(-2.71051e-14 8.05882e-15 0 -2.71051e-14 9.81042e-15 0 0 0 0)
(0 3.15584e-15 0 -2.71051e-14 -1.38697e-14 0 0 0 0)
(2.71051e-14 -1.25919e-14 0 0 -5.60324e-15 0 0 0 0)
(-2.71051e-14 -1.32007e-14 0 0 1.62715e-14 0 0 0 0)
(0 3.57103e-16 0 0 1.72594e-14 0 0 0 0)
(0 5.65714e-15 0 0 1.09694e-14 0 0 0 0)
(-2.71051e-14 7.73169e-15 0 -5.42101e-14 1.43145e-14 0 0 0 0)
(-2.71051e-14 6.3898e-15 0 0 7.05212e-15 0 0 0 0)
(2.71051e-14 -2.4298e-15 0 0 4.97758e-15 0 0 0 0)
(0 -5.78738e-16 0 -2.71051e-14 6.77828e-15 0 0 0 0)
(-2.71051e-14 5.04582e-15 0 -2.71051e-14 -6.64743e-17 0 0 0 0)
)
;

boundaryField
{
    movingWall
    {
        type            extrapolatedCalculated;
        value           nonuniform List<tensor> 
20
(
(-4.33681e-13 -6.42218e-12 0 2.93099e-12 3.26549e-11 0 0 0 0)
(8.67362e-13 7.75069e-12 0 -1.19904e-12 -6.96618e-12 0 0 0 0)
(-1.89735e-13 -1.65941e-12 0 -5.32907e-13 1.65212e-12 0 0 0 0)
(-5.42101e-14 3.86933e-13 0 -3.9968e-13 -3.28535e-13 0 0 0 0)
(0 -8.59803e-14 0 -3.9968e-13 1.04389e-13 0 0 0 0)
(0 1.60016e-14 0 -3.9968e-13 1.53864e-14 0 0 0 0)
(-5.42101e-14 -2.64077e-15 0 -2.66454e-13 4.03823e-14 0 0 0 0)
(-5.42101e-14 5.62337e-15 0 -2.66454e-13 2.59495e-14 0 0 0 0)
(0 3.36457e-15 0 -1.33227e-13 1.78888e-14 0 0 0 0)
(-2.71051e-14 8.05882e-15 0 -1.77636e-13 1.24912e-14 0 0 0 0)
(0 3.15584e-15 0 -8.88178e-14 -1.43465e-14 0 0 0 0)
(2.71051e-14 -1.25919e-14 0 -1.77636e-13 -1.32101e-16 0 0 0 0)
(-2.71051e-14 -1.32007e-14 0 -1.77636e-13 3.60213e-14 0 0 0 0)
(0 3.57103e-16 0 -8.88178e-14 5.26708e-14 0 0 0 0)
(0 5.65714e-15 0 -4.44089e-14 3.45929e-14 0 0 0 0)
(-2.71051e-14 7.73169e-15 0 -8.88178e-14 3.00423e-14 0 0 0 0)
(-2.71051e-14 6.3898e-15 0 0 3.66611e-15 0 0 0 0)
(2.71051e-14 -2.4298e-15 0 0 4.48304e-15 0 0 0 0)
(0 -5.78738e-16 0 -4.44089e-14 1.33853e-14 0 0 0 0)
(-2.71051e-14 5.04582e-15 0 -4.44089e-14 6.79799e-15 0 0 0 0)
)
;
    }
    fixedWalls
    {
        type            extrapolatedCalculated;
        value           nonuniform List<tensor> 
60
(
(-5.15143e-12 4.53878e-11 0 8.40257e-13 1.43067e-11 0 0 0 0)
(8.52651e-12 1.18388e-11 0 1.0571e-12 -2.37628e-11 0 0 0 0)
(-8.88178e-13 -4.96634e-11 0 -3.98444e-12 5.03254e-12 0 0 0 0)
(-7.37188e-12 3.1969e-11 0 1.30104e-12 1.23582e-11 0 0 0 0)
(4.26326e-12 -2.30505e-13 0 2.05998e-12 -1.4815e-11 0 0 0 0)
(8.43769e-13 -2.72911e-11 0 -1.19262e-12 8.5843e-12 0 0 0 0)
(-5.32907e-13 3.41067e-11 0 -3.79471e-13 4.18614e-12 0 0 0 0)
(-7.10543e-13 -1.05466e-11 0 5.42101e-13 -1.29794e-11 0 0 0 0)
(1.68754e-12 -1.78108e-11 0 1.89735e-13 9.71639e-12 0 0 0 0)
(4.44089e-14 2.83189e-11 0 -1.19262e-12 -2.0843e-12 0 0 0 0)
(-3.10862e-12 -2.6148e-11 0 1.0842e-12 -3.57385e-12 0 0 0 0)
(4.4853e-12 1.40235e-11 0 -5.96311e-13 7.96345e-12 0 0 0 0)
(-5.59552e-12 5.70582e-12 0 -4.87891e-13 -9.50878e-12 0 0 0 0)
(2.57572e-12 -2.40116e-11 0 8.67362e-13 6.31647e-12 0 0 0 0)
(-2.13163e-12 3.09717e-11 0 2.1684e-13 6.42988e-13 0 0 0 0)
(3.4639e-12 -2.14396e-11 0 -3.25261e-13 -8.93585e-12 0 0 0 0)
(-3.55271e-12 -4.77171e-12 0 -1.78893e-12 1.35961e-11 0 0 0 0)
(-3.64153e-12 3.29448e-11 0 2.98156e-12 -2.34394e-12 0 0 0 0)
(8.4821e-12 -1.41475e-11 0 1.89735e-13 -1.63999e-11 0 0 0 0)
(-2.93099e-12 -3.26549e-11 0 -1.38236e-12 1.17006e-11 0 0 0 0)
(0 6.6238e-15 0 0 -1.08434e-14 0 0 0 0)
(8.88178e-14 3.67498e-14 0 0 -1.04925e-14 0 0 0 0)
(-4.44089e-14 4.85936e-14 0 2.71051e-14 1.01845e-15 0 0 0 0)
(-4.44089e-14 3.2676e-14 0 0 1.10288e-14 0 0 0 0)
(-4.44089e-14 4.47839e-15 0 -2.71051e-14 1.04294e-14 0 0 0 0)
(0 -9.04156e-15 0 0 6.68863e-16 0 0 0 0)
(-4.44089e-14 1.80293e-15 0 2.71051e-14 -1.5475e-15 0 0 0 0)
(0 -2.85156e-15 0 -2.71051e-14 2.42335e-15 0 0 0 0)
(0 -7.89049e-15 0 0 -1.96674e-15 0 0 0 0)
(0 5.01542e-15 0 0 -2.06533e-15 0 0 0 0)
(-4.44089e-14 3.70844e-16 0 2.71051e-14 7.53483e-15 0 0 0 0)
(-4.44089e-14 -2.51239e-14 0 0 -4.97091e-15 0 0 0 0)
(0 2.02545e-14 0 0 -2.09476e-14 0 0 0 0)
(-4.44089e-14 5.86665e-14 0 0 -8.59134e-16 0 0 0 0)
(-4.44089e-14 2.3691e-14 0 -2.71051e-14 1.26429e-14 0 0 0 0)
(0 8.09485e-15 0 0 2.80764e-15 0 0 0 0)
(0 1.24605e-14 0 0 3.95886e-15 0 0 0 0)
(-4.44089e-14 -7.74057e-15 0 0 4.88108e-15 0 0 0 0)
(0 -7.06389e-15 0 2.71051e-14 -3.63464e-15 0 0 0 0)
(-4.44089e-14 6.79799e-15 0 -2.71051e-14 -6.64743e-17 0 0 0 0)
(-8.40257e-13 8.95499e-12 0 -5.15143e-12 4.53878e-11 0 0 0 0)
(1.35525e-12 -1.07696e-11 0 1.77636e-12 -9.56784e-12 0 0 0 0)
(-4.33681e-13 2.28467e-12 0 2.66454e-13 2.3095e-12 0 0 0 0)
(2.71051e-14 -5.42165e-13 0 1.33227e-13 -4.29158e-13 0 0 0 0)
(0 1.1665e-13 0 3.10862e-13 1.40846e-13 0 0 0 0)
(-2.71051e-14 -1.41936e-14 0 1.77636e-13 3.74423e-14 0 0 0 0)
(-2.71051e-14 6.53839e-15 0 1.33227e-13 8.40713e-14 0 0 0 0)
(-2.71051e-14 -1.19086e-14 0 4.44089e-14 6.35959e-14 0 0 0 0)
(-2.71051e-14 -1.36589e-14 0 0 3.64368e-14 0 0 0 0)
(-5.42101e-14 -5.5071e-15 0 -8.88178e-14 8.96035e-15 0 0 0 0)
(5.42101e-14 -4.34083e-16 0 0 1.44084e-14 0 0 0 0)
(0 -5.79743e-15 0 -8.88178e-14 7.22402e-15 0 0 0 0)
(-5.42101e-14 -4.06867e-15 0 0 -8.78133e-15 0 0 0 0)
(5.42101e-14 2.32697e-15 0 -8.88178e-14 -9.05068e-15 0 0 0 0)
(0 3.82591e-15 0 0 5.26542e-16 0 0 0 0)
(-5.42101e-14 -8.30587e-15 0 0 6.25297e-15 0 0 0 0)
(0 -1.08082e-14 0 -1.77636e-13 -3.26969e-14 0 0 0 0)
(5.42101e-14 1.29621e-14 0 0 -3.69797e-14 0 0 0 0)
(0 7.58897e-15 0 4.44089e-14 1.91514e-14 0 0 0 0)
(0 -3.1319e-15 0 0 -6.6238e-15 0 0 0 0)
)
;
    }
    frontAndBack
    {
        type            empty;
    }
}


// ************************************************************************* //
