/*--------------------------------*- C++ -*----------------------------------*\
| =========                 |                                                 |
| \\      /  F ield         | OpenFOAM: The Open Source CFD Toolbox           |
|  \\    /   O peration     | Version:  2506                                  |
|   \\  /    A nd           | Website:  www.openfoam.com                      |
|    \\/     M anipulation  |                                                 |
\*---------------------------------------------------------------------------*/
FoamFile
{
    version     2.0;
    format      ascii;
    arch        "LSB;label=32;scalar=64";
    class       volVectorField;
    location    "6";
    object      gradPhi;
}
// * * * * * * * * * * * * * * * * * * * * * * * * * * * * * * * * * * * * * //

dimensions      [0 2 -1 0 0 0 0];

internalField   nonuniform List<vector> 
400
(
(-0.02 8.17376e-17 0)
(1.20768e-16 -1.2126e-16 0)
(-3.80503e-17 3.69207e-17 0)
(6.61744e-18 -4.61241e-18 0)
(-1.65436e-18 1.41015e-18 0)
(0 3.72724e-19 0)
(-3.30872e-18 1.98156e-18 0)
(-1.65436e-18 1.57241e-18 0)
(0 1.24327e-18 0)
(0 4.58627e-19 0)
(-1.65436e-18 5.29367e-19 0)
(0 5.01604e-19 0)
(0 -4.12655e-19 0)
(0 -3.62616e-19 0)
(0 5.39011e-19 0)
(-1.65436e-18 1.14774e-18 0)
(0 -2.48056e-19 0)
(3.30872e-18 -1.63598e-18 0)
(0 -2.33418e-20 0)
(0 -2.90064e-19 0)
(-0.02 -1.4179e-16 0)
(-1.96869e-16 1.97965e-16 0)
(5.9557e-17 -5.94237e-17 0)
(-8.27181e-18 8.43239e-18 0)
(3.30872e-18 -3.23633e-18 0)
(0 -1.76458e-18 0)
(3.30872e-18 -2.98925e-18 0)
(1.65436e-18 -1.27859e-18 0)
(0 -6.3385e-20 0)
(0 2.26847e-19 0)
(0 5.63262e-20 0)
(0 -1.18333e-19 0)
(0 1.73217e-19 0)
(0 3.14264e-19 0)
(-1.65436e-18 -9.1253e-21 0)
(1.65436e-18 -1.01215e-19 0)
(-1.65436e-18 9.91279e-19 0)
(-3.30872e-18 2.46035e-18 0)
(0 -4.90491e-19 0)
(1.65436e-18 -1.23933e-18 0)
(-0.02 1.90149e-17 0)
(2.48154e-17 -2.67373e-17 0)
(-8.27181e-18 9.29309e-18 0)
(3.30872e-18 -2.40801e-18 0)
(-1.65436e-18 1.60506e-18 0)
(-1.65436e-18 2.63915e-18 0)
(-1.65436e-18 1.07816e-18 0)
(0 -5.1237e-19 0)
(1.65436e-18 -3.69946e-19 0)
(0 8.21195e-20 0)
(0 -6.20834e-19 0)
(0 -1.99357e-19 0)
(-1.65436e-18 1.09427e-18 0)
(0 3.27093e-19 0)
(0 -4.97555e-20 0)
(0 -6.92231e-20 0)
(1.65436e-18 -5.67024e-19 0)
(1.65436e-18 -2.36029e-18 0)
(1.65436e-18 -7.4585e-19 0)
(-1.65436e-18 4.84071e-19 0)
(-0.02 8.64928e-17 0)
(1.14151e-16 -1.14927e-16 0)
(-3.47416e-17 3.43035e-17 0)
(3.30872e-18 -3.39112e-18 0)
(-1.65436e-18 2.27961e-18 0)
(1.65436e-18 -1.62039e-19 0)
(-1.65436e-18 -1.34109e-20 0)
(0 -1.2559e-19 0)
(1.65436e-18 -1.28855e-18 0)
(0 -9.24581e-21 0)
(-1.65436e-18 2.41166e-19 0)
(0 -8.52912e-20 0)
(1.65436e-18 -3.1228e-19 0)
(-1.65436e-18 9.69242e-19 0)
(1.65436e-18 -8.23274e-19 0)
(1.65436e-18 -3.46076e-18 0)
(1.65436e-18 -1.08724e-18 0)
(-1.65436e-18 1.18106e-18 0)
(0 -5.08904e-21 0)
(0 2.68109e-19 0)
(-0.02 -7.0221e-17 0)
(-1.09188e-16 1.08874e-16 0)
(3.80503e-17 -3.81916e-17 0)
(-1.65436e-18 2.36159e-18 0)
(3.30872e-18 -3.43137e-18 0)
(1.65436e-18 -1.1088e-18 0)
(0 4.01809e-20 0)
(0 3.42298e-19 0)
(0 -4.29183e-19 0)
(1.65436e-18 -9.18622e-19 0)
(-1.65436e-18 5.12708e-19 0)
(-1.65436e-18 2.31091e-18 0)
(-1.65436e-18 1.56673e-18 0)
(1.65436e-18 -1.71922e-18 0)
(0 -5.77459e-19 0)
(-1.65436e-18 1.64833e-18 0)
(0 -6.18793e-19 0)
(1.65436e-18 -8.09604e-19 0)
(-1.65436e-18 9.34135e-19 0)
(-1.65436e-18 1.37071e-18 0)
(-0.02 2.68403e-17 0)
(5.12852e-17 -5.11318e-17 0)
(-2.15067e-17 2.1064e-17 0)
(0 -3.05675e-19 0)
(0 2.12618e-18 0)
(0 1.81525e-19 0)
(-1.65436e-18 4.66049e-21 0)
(0 7.86499e-19 0)
(-1.65436e-18 1.54322e-18 0)
(0 -1.46735e-19 0)
(1.65436e-18 -2.71915e-19 0)
(0 -1.12624e-18 0)
(1.65436e-18 -8.16222e-19 0)
(-1.65436e-18 2.76322e-19 0)
(0 8.59623e-20 0)
(-1.65436e-18 6.18556e-19 0)
(-1.65436e-18 1.69643e-18 0)
(0 9.33782e-19 0)
(-1.65436e-18 6.91727e-19 0)
(1.65436e-18 -6.83276e-19 0)
(-0.02 1.49061e-17 0)
(2.64698e-17 -2.74499e-17 0)
(-1.15805e-17 1.19208e-17 0)
(1.65436e-18 -8.09175e-19 0)
(0 -1.73985e-19 0)
(0 -2.65604e-19 0)
(0 -5.48094e-19 0)
(0 -1.81647e-19 0)
(-3.30872e-18 1.98672e-18 0)
(-1.65436e-18 2.77515e-18 0)
(-1.65436e-18 1.6669e-18 0)
(1.65436e-18 -1.88597e-18 0)
(4.96308e-18 -3.4572e-18 0)
(0 -1.37704e-18 0)
(0 2.76511e-19 0)
(0 3.4231e-19 0)
(0 3.60252e-19 0)
(-1.65436e-18 1.9698e-18 0)
(0 1.42219e-19 0)
(0 2.31945e-19 0)
(-0.02 -4.03576e-17 0)
(-7.27919e-17 7.24727e-17 0)
(3.14329e-17 -3.16079e-17 0)
(-3.30872e-18 3.42665e-18 0)
(0 9.57497e-19 0)
(-1.65436e-18 1.0302e-18 0)
(-3.30872e-18 1.92858e-18 0)
(0 5.65736e-19 0)
(3.30872e-18 -2.45254e-18 0)
(1.65436e-18 -2.47076e-18 0)
(4.96308e-18 -3.37245e-18 0)
(1.65436e-18 -1.81721e-18 0)
(-3.30872e-18 1.32389e-18 0)
(-1.65436e-18 3.10425e-18 0)
(-1.65436e-18 1.44187e-18 0)
(0 5.78019e-19 0)
(0 -9.7839e-20 0)
(3.30872e-18 -2.50202e-18 0)
(0 -2.51696e-19 0)
(0 -2.08647e-19 0)
(-0.02 2.41524e-17 0)
(4.46678e-17 -4.44218e-17 0)
(-1.98523e-17 2.11589e-17 0)
(1.65436e-18 -1.5972e-18 0)
(1.65436e-18 -1.0187e-18 0)
(-1.65436e-18 4.95246e-19 0)
(0 -8.24848e-20 0)
(0 -9.05955e-19 0)
(1.65436e-18 -9.04929e-19 0)
(0 -1.76447e-19 0)
(0 -1.18165e-19 0)
(-1.65436e-18 1.86736e-18 0)
(-1.65436e-18 3.85074e-19 0)
(3.30872e-18 -2.01973e-18 0)
(0 -7.14644e-19 0)
(0 3.14494e-19 0)
(0 5.4686e-20 0)
(-1.65436e-18 1.43947e-18 0)
(-1.65436e-18 7.64968e-19 0)
(0 5.57098e-19 0)
(-0.02 -8.58483e-18 0)
(-9.92617e-18 9.70779e-18 0)
(3.30872e-18 -4.19794e-18 0)
(0 4.2814e-19 0)
(0 8.66934e-19 0)
(-1.65436e-18 2.9962e-19 0)
(0 8.52839e-20 0)
(0 -1.44941e-19 0)
(0 4.15886e-19 0)
(0 6.48776e-19 0)
(-4.96308e-18 2.64826e-18 0)
(1.65436e-18 -7.16083e-19 0)
(0 -6.61028e-19 0)
(0 2.6336e-19 0)
(0 5.52908e-19 0)
(0 -6.78003e-19 0)
(0 -2.57419e-20 0)
(0 -9.96486e-19 0)
(1.65436e-18 -2.00911e-18 0)
(1.65436e-18 -1.28165e-18 0)
(-0.02 4.46263e-18 0)
(1.65436e-18 -1.97572e-18 0)
(4.96308e-18 -5.77774e-18 0)
(1.65436e-18 -1.08509e-18 0)
(0 -5.81686e-19 0)
(0 -2.27629e-18 0)
(1.65436e-18 -2.28706e-18 0)
(0 -1.03204e-19 0)
(-1.65436e-18 1.49124e-18 0)
(0 2.66215e-19 0)
(0 -1.03294e-18 0)
(0 1.55664e-18 0)
(0 3.50561e-19 0)
(-1.65436e-18 6.40956e-19 0)
(-1.65436e-18 1.60876e-18 0)
(0 9.01016e-19 0)
(1.65436e-18 -5.36732e-19 0)
(-1.65436e-18 4.09046e-19 0)
(-1.65436e-18 1.53104e-18 0)
(0 1.43421e-18 0)
(-0.02 -2.11362e-18 0)
(6.61744e-18 -7.56753e-18 0)
(-1.65436e-17 1.65359e-17 0)
(0 -2.31578e-20 0)
(0 -1.32617e-18 0)
(0 1.02686e-18 0)
(-3.30872e-18 2.7852e-18 0)
(0 8.00963e-19 0)
(1.65436e-18 -2.08437e-18 0)
(1.65436e-18 -2.29144e-18 0)
(1.65436e-18 -2.29983e-18 0)
(1.65436e-18 -1.66394e-18 0)
(0 9.99967e-19 0)
(-1.65436e-18 -1.70988e-19 0)
(1.65436e-18 -2.8712e-18 0)
(3.30872e-18 -2.04238e-18 0)
(0 -4.47276e-19 0)
(0 -5.50772e-20 0)
(0 -6.30771e-19 0)
(0 4.35238e-19 0)
(-0.02 7.44466e-18 0)
(-1.98523e-17 1.91227e-17 0)
(1.98523e-17 -2.14147e-17 0)
(1.65436e-18 -9.33199e-19 0)
(0 8.01407e-20 0)
(0 -1.87793e-19 0)
(3.30872e-18 -2.13112e-18 0)
(0 2.13488e-19 0)
(-1.65436e-18 1.30243e-18 0)
(0 -1.19247e-19 0)
(-1.65436e-18 6.80805e-19 0)
(0 7.79855e-19 0)
(0 -3.66829e-19 0)
(-1.65436e-18 1.49546e-19 0)
(1.65436e-18 -3.66573e-19 0)
(0 6.68177e-19 0)
(0 4.99664e-19 0)
(0 -6.05249e-19 0)
(1.65436e-18 -1.77974e-18 0)
(3.30872e-18 -3.35047e-18 0)
(-0.02 2.02803e-18 0)
(1.32349e-17 -1.42788e-17 0)
(-1.32349e-17 1.35981e-17 0)
(-1.65436e-18 1.19296e-18 0)
(-1.65436e-18 1.17757e-18 0)
(0 1.94773e-19 0)
(1.65436e-18 -1.43216e-18 0)
(3.30872e-18 -3.66265e-18 0)
(1.65436e-18 -2.26356e-18 0)
(0 2.29392e-19 0)
(0 1.74703e-18 0)
(-1.65436e-18 1.47877e-18 0)
(0 -4.92892e-19 0)
(1.65436e-18 -2.10405e-18 0)
(0 5.81694e-19 0)
(0 5.82677e-19 0)
(0 3.28006e-19 0)
(0 2.70665e-19 0)
(0 7.81555e-19 0)
(-1.65436e-18 1.29414e-18 0)
(-0.02 1.41775e-17 0)
(1.8198e-17 -1.82836e-17 0)
(-1.65436e-18 2.15036e-18 0)
(3.30872e-18 -1.97813e-18 0)
(0 -1.28167e-18 0)
(0 -4.68328e-19 0)
(-1.65436e-18 1.78027e-18 0)
(-1.65436e-18 1.37326e-18 0)
(-1.65436e-18 6.54617e-19 0)
(0 1.10936e-18 0)
(0 -1.23529e-18 0)
(1.65436e-18 -1.66742e-18 0)
(-1.65436e-18 9.6148e-19 0)
(0 1.91669e-18 0)
(0 4.75542e-19 0)
(0 -1.36646e-18 0)
(1.65436e-18 -9.37502e-19 0)
(0 -3.63918e-19 0)
(-1.65436e-18 1.26354e-18 0)
(0 9.08895e-19 0)
(-0.02 -4.62629e-17 0)
(-6.94832e-17 6.96312e-17 0)
(2.15067e-17 -2.266e-17 0)
(-3.30872e-18 3.52576e-18 0)
(1.65436e-18 -1.47918e-18 0)
(1.65436e-18 -2.75253e-18 0)
(3.30872e-18 -2.71613e-18 0)
(0 -3.01036e-19 0)
(0 4.5861e-19 0)
(0 -3.32823e-19 0)
(0 -1.06643e-18 0)
(0 1.95175e-19 0)
(0 4.6109e-19 0)
(0 4.60924e-19 0)
(0 -1.95991e-19 0)
(0 1.87807e-18 0)
(-1.65436e-18 1.23838e-18 0)
(0 1.01632e-18 0)
(0 1.89448e-20 0)
(0 -2.39935e-19 0)
(-0.02 6.74848e-17 0)
(1.00916e-16 -1.01039e-16 0)
(-3.30872e-17 3.36629e-17 0)
(4.96308e-18 -4.78914e-18 0)
(-1.65436e-18 1.11392e-18 0)
(-1.65436e-18 3.50408e-19 0)
(0 -9.68215e-20 0)
(0 7.46106e-19 0)
(0 7.21826e-19 0)
(0 6.09169e-19 0)
(0 1.59027e-18 0)
(-3.30872e-18 1.52508e-18 0)
(-1.65436e-18 7.81913e-19 0)
(1.65436e-18 4.71277e-21 0)
(-1.65436e-18 6.66624e-19 0)
(1.65436e-18 -1.4769e-18 0)
(1.65436e-18 -1.84778e-18 0)
(0 -3.99263e-19 0)
(0 2.01065e-19 0)
(0 8.18145e-20 0)
(-0.02 1.01779e-17 0)
(1.65436e-18 -3.96733e-19 0)
(4.96308e-18 -6.16746e-18 0)
(1.65436e-18 -9.96045e-19 0)
(-1.65436e-18 1.43833e-18 0)
(-1.65436e-18 1.03766e-18 0)
(0 1.17108e-18 0)
(0 -9.09964e-19 0)
(1.65436e-18 -1.1235e-18 0)
(1.65436e-18 -8.97363e-19 0)
(0 1.47314e-18 0)
(0 -4.95335e-19 0)
(1.65436e-18 -2.46861e-18 0)
(0 -2.70672e-19 0)
(0 -7.83173e-20 0)
(-1.65436e-18 4.20511e-19 0)
(0 7.4271e-19 0)
(0 -3.37511e-19 0)
(1.65436e-18 -8.80433e-19 0)
(-1.65436e-18 9.01401e-19 0)
(-0.02 -1.18711e-16 0)
(-1.5551e-16 1.56067e-16 0)
(3.97047e-17 -3.97235e-17 0)
(-8.27181e-18 7.66306e-18 0)
(3.30872e-18 -2.15634e-18 0)
(-1.65436e-18 5.54767e-19 0)
(1.65436e-18 -4.20626e-19 0)
(0 1.1736e-19 0)
(0 2.63751e-19 0)
(0 2.7793e-19 0)
(0 -7.41298e-19 0)
(0 8.63967e-20 0)
(0 3.32407e-19 0)
(1.65436e-18 -1.66177e-18 0)
(0 -1.34336e-18 0)
(1.65436e-18 -9.17288e-19 0)
(0 1.06486e-19 0)
(0 5.20815e-19 0)
(-1.65436e-18 3.71574e-19 0)
(1.65436e-18 -1.14291e-18 0)
(-0.02 6.91213e-17 0)
(1.04225e-16 -1.04372e-16 0)
(-2.81241e-17 2.85562e-17 0)
(3.30872e-18 -4.1022e-18 0)
(-1.65436e-18 1.63005e-18 0)
(0 8.03031e-19 0)
(-1.65436e-18 1.86219e-18 0)
(-3.30872e-18 1.60782e-18 0)
(0 8.98398e-19 0)
(-1.65436e-18 6.79102e-19 0)
(0 -3.86819e-19 0)
(1.65436e-18 -5.26611e-19 0)
(-1.65436e-18 5.57128e-19 0)
(0 1.25873e-18 0)
(0 8.0082e-19 0)
(-1.65436e-18 1.01233e-18 0)
(0 3.96092e-19 0)
(0 -1.35914e-19 0)
(0 1.15756e-19 0)
(0 4.68652e-19 0)
)
;

boundaryField
{
    movingWall
    {
        type            extrapolatedCalculated;
        value           nonuniform List<vector> 
20
(
(-0.02 6.91213e-17 0)
(1.04225e-16 -1.04372e-16 0)
(-2.81241e-17 2.85562e-17 0)
(3.30872e-18 -4.1022e-18 0)
(-1.65436e-18 1.63005e-18 0)
(0 8.03031e-19 0)
(-1.65436e-18 1.86219e-18 0)
(-3.30872e-18 1.60782e-18 0)
(0 8.98398e-19 0)
(-1.65436e-18 6.79102e-19 0)
(0 -3.86819e-19 0)
(1.65436e-18 -5.26611e-19 0)
(-1.65436e-18 5.57128e-19 0)
(0 1.25873e-18 0)
(0 8.0082e-19 0)
(-1.65436e-18 1.01233e-18 0)
(0 3.96092e-19 0)
(0 -1.35914e-19 0)
(0 1.15756e-19 0)
(0 4.68652e-19 0)
)
;
    }
    fixedWalls
    {
        type            extrapolatedCalculated;
        value           nonuniform List<vector> 
60
(
(-0.02 8.17376e-17 0)
(-0.02 -1.4179e-16 0)
(-0.02 1.90149e-17 0)
(-0.02 8.64928e-17 0)
(-0.02 -7.0221e-17 0)
(-0.02 2.68403e-17 0)
(-0.02 1.49061e-17 0)
(-0.02 -4.03576e-17 0)
(-0.02 2.41524e-17 0)
(-0.02 -8.58483e-18 0)
(-0.02 4.46263e-18 0)
(-0.02 -2.11362e-18 0)
(-0.02 7.44466e-18 0)
(-0.02 2.02803e-18 0)
(-0.02 1.41775e-17 0)
(-0.02 -4.62629e-17 0)
(-0.02 6.74848e-17 0)
(-0.02 1.01779e-17 0)
(-0.02 -1.18711e-16 0)
(-0.02 6.91213e-17 0)
(0 -2.90064e-19 0)
(1.65436e-18 -1.23933e-18 0)
(-1.65436e-18 4.84071e-19 0)
(0 2.68109e-19 0)
(-1.65436e-18 1.37071e-18 0)
(1.65436e-18 -6.83276e-19 0)
(0 2.31945e-19 0)
(0 -2.08647e-19 0)
(0 5.57098e-19 0)
(1.65436e-18 -1.28165e-18 0)
(0 1.43421e-18 0)
(0 4.35238e-19 0)
(3.30872e-18 -3.35047e-18 0)
(-1.65436e-18 1.29414e-18 0)
(0 9.08895e-19 0)
(0 -2.39935e-19 0)
(0 8.18145e-20 0)
(-1.65436e-18 9.01401e-19 0)
(1.65436e-18 -1.14291e-18 0)
(0 4.68652e-19 0)
(-0.02 8.17376e-17 0)
(1.20768e-16 -1.2126e-16 0)
(-3.80503e-17 3.69207e-17 0)
(6.61744e-18 -4.61241e-18 0)
(-1.65436e-18 1.41015e-18 0)
(0 3.72724e-19 0)
(-3.30872e-18 1.98156e-18 0)
(-1.65436e-18 1.57241e-18 0)
(0 1.24327e-18 0)
(0 4.58627e-19 0)
(-1.65436e-18 5.29367e-19 0)
(0 5.01604e-19 0)
(0 -4.12655e-19 0)
(0 -3.62616e-19 0)
(0 5.39011e-19 0)
(-1.65436e-18 1.14774e-18 0)
(0 -2.48056e-19 0)
(3.30872e-18 -1.63598e-18 0)
(0 -2.33418e-20 0)
(0 -2.90064e-19 0)
)
;
    }
    frontAndBack
    {
        type            empty;
    }
}


// ************************************************************************* //
