/*--------------------------------*- C++ -*----------------------------------*\
| =========                 |                                                 |
| \\      /  F ield         | OpenFOAM: The Open Source CFD Toolbox           |
|  \\    /   O peration     | Version:  2506                                  |
|   \\  /    A nd           | Website:  www.openfoam.com                      |
|    \\/     M anipulation  |                                                 |
\*---------------------------------------------------------------------------*/
FoamFile
{
    version     2.0;
    format      ascii;
    arch        "LSB;label=32;scalar=64";
    class       volScalarField;
    location    "6";
    object      initialResidual:epsilon;
}
// * * * * * * * * * * * * * * * * * * * * * * * * * * * * * * * * * * * * * //

dimensions      [0 0 0 0 0 0 0];

internalField   nonuniform List<scalar> 
400
(
0
0
0
0
0
0
0
0
0
0
0
0
0
0
0
0
0
0
0
0
0
-7.78658e-13
-7.82078e-13
-7.82251e-13
-7.82387e-13
-7.83506e-13
-7.84673e-13
-7.85298e-13
-7.8679e-13
-7.87229e-13
-7.8891e-13
-7.89181e-13
-7.9107e-13
-7.91155e-13
-7.9323e-13
-7.93207e-13
-7.95361e-13
-7.95453e-13
-1.59158e-12
0
0
-9.08891e-13
-9.13848e-13
-9.13949e-13
-9.1397e-13
-9.15421e-13
-9.16839e-13
-9.17615e-13
-9.19469e-13
-9.19979e-13
-9.22085e-13
-9.22365e-13
-9.24742e-13
-9.24761e-13
-9.27393e-13
-9.27246e-13
-9.29992e-13
-9.29982e-13
-1.86257e-12
0
0
-1.02656e-12
-1.03213e-12
-1.0323e-12
-1.03239e-12
-1.03405e-12
-1.03572e-12
-1.03661e-12
-1.03878e-12
-1.03937e-12
-1.04183e-12
-1.04216e-12
-1.04492e-12
-1.04495e-12
-1.04801e-12
-1.04785e-12
-1.05104e-12
-1.05104e-12
-2.10502e-12
0
0
-1.1091e-12
-1.11518e-12
-1.11539e-12
-1.11552e-12
-1.11735e-12
-1.11919e-12
-1.12018e-12
-1.12257e-12
-1.12323e-12
-1.12593e-12
-1.12631e-12
-1.12935e-12
-1.1294e-12
-1.13276e-12
-1.13261e-12
-1.13611e-12
-1.13614e-12
-2.27549e-12
0
0
-1.16001e-12
-1.16636e-12
-1.16662e-12
-1.16678e-12
-1.1687e-12
-1.17067e-12
-1.17171e-12
-1.17424e-12
-1.17495e-12
-1.17781e-12
-1.17822e-12
-1.18143e-12
-1.1815e-12
-1.18505e-12
-1.1849e-12
-1.18861e-12
-1.18865e-12
-2.3807e-12
0
0
-1.18961e-12
-1.19631e-12
-1.19653e-12
-1.19668e-12
-1.19868e-12
-1.20069e-12
-1.20179e-12
-1.20439e-12
-1.20514e-12
-1.20807e-12
-1.20852e-12
-1.21182e-12
-1.21192e-12
-1.21556e-12
-1.21544e-12
-1.21924e-12
-1.2193e-12
-2.44212e-12
0
0
-1.20714e-12
-1.21413e-12
-1.21429e-12
-1.21445e-12
-1.21647e-12
-1.21854e-12
-1.21965e-12
-1.22231e-12
-1.22306e-12
-1.22607e-12
-1.22651e-12
-1.22988e-12
-1.22997e-12
-1.2337e-12
-1.23357e-12
-1.23744e-12
-1.23751e-12
-2.47861e-12
0
0
-1.21878e-12
-1.22559e-12
-1.22585e-12
-1.22603e-12
-1.22808e-12
-1.23017e-12
-1.2313e-12
-1.23399e-12
-1.23476e-12
-1.23779e-12
-1.23825e-12
-1.24164e-12
-1.24176e-12
-1.24551e-12
-1.24539e-12
-1.24931e-12
-1.24938e-12
-2.50239e-12
0
0
-1.22754e-12
-1.23432e-12
-1.23461e-12
-1.23481e-12
-1.23687e-12
-1.23898e-12
-1.24011e-12
-1.24283e-12
-1.2436e-12
-1.24668e-12
-1.24712e-12
-1.25058e-12
-1.25066e-12
-1.25447e-12
-1.25434e-12
-1.2583e-12
-1.25837e-12
-2.5204e-12
0
0
-1.23499e-12
-1.24224e-12
-1.2424e-12
-1.24256e-12
-1.24465e-12
-1.24676e-12
-1.24792e-12
-1.25064e-12
-1.25144e-12
-1.25451e-12
-1.25499e-12
-1.25844e-12
-1.25856e-12
-1.26237e-12
-1.26226e-12
-1.26623e-12
-1.26632e-12
-2.53632e-12
0
0
-1.24281e-12
-1.24982e-12
-1.25008e-12
-1.25026e-12
-1.25237e-12
-1.2545e-12
-1.25567e-12
-1.25841e-12
-1.25921e-12
-1.26231e-12
-1.26279e-12
-1.26627e-12
-1.26639e-12
-1.27023e-12
-1.27012e-12
-1.27412e-12
-1.27421e-12
-2.55212e-12
0
0
-1.25094e-12
-1.25805e-12
-1.25828e-12
-1.25849e-12
-1.26059e-12
-1.26276e-12
-1.26392e-12
-1.2667e-12
-1.26749e-12
-1.27063e-12
-1.2711e-12
-1.27462e-12
-1.27473e-12
-1.27861e-12
-1.2785e-12
-1.28254e-12
-1.28262e-12
-2.56898e-12
0
0
-1.25992e-12
-1.26721e-12
-1.26741e-12
-1.2676e-12
-1.26974e-12
-1.27191e-12
-1.2731e-12
-1.27588e-12
-1.27671e-12
-1.27985e-12
-1.28035e-12
-1.28388e-12
-1.28401e-12
-1.28791e-12
-1.2878e-12
-1.29187e-12
-1.29196e-12
-2.58768e-12
0
0
-1.27025e-12
-1.27751e-12
-1.27775e-12
-1.27794e-12
-1.2801e-12
-1.28229e-12
-1.2835e-12
-1.28631e-12
-1.28714e-12
-1.29031e-12
-1.29082e-12
-1.29438e-12
-1.29452e-12
-1.29845e-12
-1.29835e-12
-1.30245e-12
-1.30255e-12
-2.6089e-12
0
0
-1.28206e-12
-1.28916e-12
-1.28947e-12
-1.28972e-12
-1.29188e-12
-1.29411e-12
-1.29531e-12
-1.29817e-12
-1.29899e-12
-1.30222e-12
-1.30272e-12
-1.30634e-12
-1.30646e-12
-1.31045e-12
-1.31034e-12
-1.3145e-12
-1.3146e-12
-2.63302e-12
0
0
-1.29474e-12
-1.3023e-12
-1.30249e-12
-1.30271e-12
-1.30489e-12
-1.30716e-12
-1.30837e-12
-1.31127e-12
-1.3121e-12
-1.31537e-12
-1.31587e-12
-1.31953e-12
-1.31966e-12
-1.32369e-12
-1.32359e-12
-1.32779e-12
-1.3279e-12
-2.65966e-12
0
0
-1.30807e-12
-1.31538e-12
-1.31566e-12
-1.31593e-12
-1.31814e-12
-1.32042e-12
-1.32166e-12
-1.32457e-12
-1.32544e-12
-1.32872e-12
-1.32926e-12
-1.33293e-12
-1.33311e-12
-1.33714e-12
-1.33709e-12
-1.34129e-12
-1.34144e-12
-2.68674e-12
0
0
-1.32218e-12
-1.33095e-12
-1.33096e-12
-1.33071e-12
-1.33308e-12
-1.33524e-12
-1.33647e-12
-1.33938e-12
-1.34016e-12
-1.34352e-12
-1.34391e-12
-1.34774e-12
-1.34769e-12
-1.35198e-12
-1.35163e-12
-1.35616e-12
-1.35604e-12
-2.71305e-12
0
0
0
0
0
0
0
0
0
0
0
0
0
0
0
0
0
0
0
0
0
)
;

boundaryField
{
    movingWall
    {
        type            zeroGradient;
    }
    fixedWalls
    {
        type            zeroGradient;
    }
    frontAndBack
    {
        type            empty;
    }
}


// ************************************************************************* //
