/*--------------------------------*- C++ -*----------------------------------*\
| =========                 |                                                 |
| \\      /  F ield         | OpenFOAM: The Open Source CFD Toolbox           |
|  \\    /   O peration     | Version:  2506                                  |
|   \\  /    A nd           | Website:  www.openfoam.com                      |
|    \\/     M anipulation  |                                                 |
\*---------------------------------------------------------------------------*/
FoamFile
{
    version     2.0;
    format      ascii;
    arch        "LSB;label=32;scalar=64";
    class       volScalarField;
    location    "6";
    object      initialResidual:k;
}
// * * * * * * * * * * * * * * * * * * * * * * * * * * * * * * * * * * * * * //

dimensions      [0 0 0 0 0 0 0];

internalField   nonuniform List<scalar> 
400
(
-9.80011e-13
-9.80151e-13
-9.79955e-13
-9.80471e-13
-9.79682e-13
-9.80519e-13
-9.79602e-13
-9.80565e-13
-9.7962e-13
-9.80498e-13
-9.79745e-13
-9.8029e-13
-9.79798e-13
-9.8035e-13
-9.79805e-13
-9.80286e-13
-9.79916e-13
-9.80149e-13
-9.80057e-13
-9.80073e-13
-1.08938e-12
-1.08666e-12
-1.09041e-12
-1.09336e-12
-1.08576e-12
-1.09103e-12
-1.08652e-12
-1.08987e-12
-1.08695e-12
-1.09103e-12
-1.08599e-12
-1.09134e-12
-1.08578e-12
-1.09083e-12
-1.08617e-12
-1.08997e-12
-1.08695e-12
-1.0885e-12
-1.08811e-12
-1.08833e-12
-1.23419e-12
-1.2323e-12
-1.23585e-12
-1.23321e-12
-1.23442e-12
-1.23318e-12
-1.2341e-12
-1.23304e-12
-1.23375e-12
-1.23298e-12
-1.23357e-12
-1.23295e-12
-1.23346e-12
-1.23295e-12
-1.23339e-12
-1.23295e-12
-1.23335e-12
-1.23315e-12
-1.2332e-12
-1.23305e-12
-1.35568e-12
-1.35331e-12
-1.35637e-12
-1.35672e-12
-1.35467e-12
-1.35665e-12
-1.35334e-12
-1.35887e-12
-1.3508e-12
-1.35844e-12
-1.35089e-12
-1.35742e-12
-1.3516e-12
-1.35718e-12
-1.35183e-12
-1.35595e-12
-1.35285e-12
-1.3544e-12
-1.3541e-12
-1.35432e-12
-1.43673e-12
-1.43535e-12
-1.43676e-12
-1.43751e-12
-1.43602e-12
-1.43669e-12
-1.43536e-12
-1.43911e-12
-1.43266e-12
-1.44052e-12
-1.43107e-12
-1.43926e-12
-1.43176e-12
-1.43863e-12
-1.43234e-12
-1.43723e-12
-1.43357e-12
-1.43542e-12
-1.43504e-12
-1.4353e-12
-1.4848e-12
-1.48271e-12
-1.48518e-12
-1.48867e-12
-1.48157e-12
-1.49035e-12
-1.47823e-12
-1.48985e-12
-1.47793e-12
-1.48861e-12
-1.47855e-12
-1.48865e-12
-1.47857e-12
-1.48787e-12
-1.47932e-12
-1.48592e-12
-1.48104e-12
-1.48354e-12
-1.48297e-12
-1.48334e-12
-1.51244e-12
-1.50618e-12
-1.51646e-12
-1.51176e-12
-1.51254e-12
-1.51079e-12
-1.51192e-12
-1.51058e-12
-1.51152e-12
-1.51059e-12
-1.51134e-12
-1.51053e-12
-1.51122e-12
-1.5105e-12
-1.51114e-12
-1.51048e-12
-1.51106e-12
-1.51074e-12
-1.51082e-12
-1.51063e-12
-1.52668e-12
-1.53699e-12
-1.5213e-12
-1.53203e-12
-1.52335e-12
-1.53136e-12
-1.52353e-12
-1.53311e-12
-1.52136e-12
-1.53317e-12
-1.52088e-12
-1.53167e-12
-1.52207e-12
-1.53025e-12
-1.52333e-12
-1.52897e-12
-1.52463e-12
-1.52684e-12
-1.52628e-12
-1.52662e-12
-1.53913e-12
-1.53094e-12
-1.5442e-12
-1.53824e-12
-1.53855e-12
-1.53813e-12
-1.53828e-12
-1.53741e-12
-1.53838e-12
-1.53717e-12
-1.53819e-12
-1.53637e-12
-1.53767e-12
-1.53666e-12
-1.53743e-12
-1.53683e-12
-1.53741e-12
-1.53717e-12
-1.53725e-12
-1.53705e-12
-1.54665e-12
-1.54346e-12
-1.54788e-12
-1.55093e-12
-1.54315e-12
-1.55206e-12
-1.53976e-12
-1.54982e-12
-1.54097e-12
-1.55066e-12
-1.5403e-12
-1.55103e-12
-1.5399e-12
-1.54943e-12
-1.54113e-12
-1.54737e-12
-1.54293e-12
-1.5452e-12
-1.54471e-12
-1.54504e-12
-1.55424e-12
-1.55024e-12
-1.55624e-12
-1.55333e-12
-1.55467e-12
-1.55242e-12
-1.55333e-12
-1.55279e-12
-1.55315e-12
-1.55183e-12
-1.55311e-12
-1.55194e-12
-1.55288e-12
-1.552e-12
-1.55275e-12
-1.55197e-12
-1.55263e-12
-1.55226e-12
-1.55237e-12
-1.55219e-12
-1.56126e-12
-1.55441e-12
-1.56601e-12
-1.56027e-12
-1.56135e-12
-1.55942e-12
-1.56059e-12
-1.55942e-12
-1.56028e-12
-1.55941e-12
-1.56009e-12
-1.55929e-12
-1.55993e-12
-1.55921e-12
-1.55984e-12
-1.55921e-12
-1.55976e-12
-1.55948e-12
-1.55955e-12
-1.55934e-12
-1.56774e-12
-1.57393e-12
-1.56428e-12
-1.5723e-12
-1.56399e-12
-1.57329e-12
-1.56243e-12
-1.57428e-12
-1.56108e-12
-1.57379e-12
-1.56113e-12
-1.57257e-12
-1.56202e-12
-1.57097e-12
-1.56334e-12
-1.5696e-12
-1.56475e-12
-1.56708e-12
-1.56669e-12
-1.56699e-12
-1.57764e-12
-1.57347e-12
-1.57951e-12
-1.57642e-12
-1.57799e-12
-1.57557e-12
-1.57703e-12
-1.57625e-12
-1.57612e-12
-1.57531e-12
-1.5763e-12
-1.57521e-12
-1.57621e-12
-1.57523e-12
-1.57607e-12
-1.57524e-12
-1.57594e-12
-1.57557e-12
-1.57568e-12
-1.57549e-12
-1.58718e-12
-1.58321e-12
-1.59004e-12
-1.58571e-12
-1.58711e-12
-1.58544e-12
-1.58667e-12
-1.58514e-12
-1.58628e-12
-1.58504e-12
-1.58587e-12
-1.58507e-12
-1.58571e-12
-1.58503e-12
-1.58558e-12
-1.58501e-12
-1.58554e-12
-1.58529e-12
-1.58536e-12
-1.58515e-12
-1.59791e-12
-1.59456e-12
-1.59922e-12
-1.59968e-12
-1.59652e-12
-1.59988e-12
-1.5944e-12
-1.60186e-12
-1.59214e-12
-1.59855e-12
-1.59414e-12
-1.59964e-12
-1.59351e-12
-1.59945e-12
-1.59343e-12
-1.59806e-12
-1.59451e-12
-1.59628e-12
-1.59591e-12
-1.59617e-12
-1.60815e-12
-1.62129e-12
-1.60158e-12
-1.61501e-12
-1.60392e-12
-1.61541e-12
-1.60323e-12
-1.61711e-12
-1.60113e-12
-1.61704e-12
-1.60074e-12
-1.61531e-12
-1.6021e-12
-1.61324e-12
-1.60388e-12
-1.61145e-12
-1.60574e-12
-1.60858e-12
-1.608e-12
-1.6084e-12
-1.62287e-12
-1.61758e-12
-1.62591e-12
-1.62227e-12
-1.62259e-12
-1.62159e-12
-1.62244e-12
-1.62081e-12
-1.62225e-12
-1.62058e-12
-1.62187e-12
-1.62065e-12
-1.62161e-12
-1.62073e-12
-1.62151e-12
-1.6207e-12
-1.62139e-12
-1.62099e-12
-1.6211e-12
-1.62091e-12
-1.6336e-12
-1.6304e-12
-1.63546e-12
-1.63207e-12
-1.63349e-12
-1.63213e-12
-1.63321e-12
-1.63215e-12
-1.63268e-12
-1.63181e-12
-1.63268e-12
-1.63136e-12
-1.63258e-12
-1.63123e-12
-1.63199e-12
-1.63153e-12
-1.63203e-12
-1.63182e-12
-1.63189e-12
-1.63167e-12
-1.63776e-12
-1.63797e-12
-1.63864e-12
-1.6375e-12
-1.63872e-12
-1.63723e-12
-1.63892e-12
-1.6371e-12
-1.63896e-12
-1.63717e-12
-1.63879e-12
-1.63742e-12
-1.63848e-12
-1.63778e-12
-1.63812e-12
-1.638e-12
-1.63803e-12
-1.63804e-12
-1.63804e-12
-1.63804e-12
)
;

boundaryField
{
    movingWall
    {
        type            zeroGradient;
    }
    fixedWalls
    {
        type            zeroGradient;
    }
    frontAndBack
    {
        type            empty;
    }
}


// ************************************************************************* //
