/*--------------------------------*- C++ -*----------------------------------*\
| =========                 |                                                 |
| \\      /  F ield         | OpenFOAM: The Open Source CFD Toolbox           |
|  \\    /   O peration     | Version:  2506                                  |
|   \\  /    A nd           | Website:  www.openfoam.com                      |
|    \\/     M anipulation  |                                                 |
\*---------------------------------------------------------------------------*/
FoamFile
{
    version     2.0;
    format      ascii;
    arch        "LSB;label=32;scalar=64";
    class       volScalarField;
    location    "6";
    object      initialResidual:Uy;
}
// * * * * * * * * * * * * * * * * * * * * * * * * * * * * * * * * * * * * * //

dimensions      [0 0 0 0 0 0 0];

internalField   nonuniform List<scalar> 
400
(
4.45427e-20
-5.91626e-21
4.39571e-21
-2.41808e-21
2.02391e-21
7.41605e-21
4.51869e-21
-9.72088e-22
-3.09188e-21
-1.65026e-21
-2.72855e-21
-1.91348e-21
-5.37178e-22
3.18533e-21
3.3119e-21
2.17343e-21
-8.94656e-22
-2.20621e-22
5.59649e-22
-1.04651e-21
1.30538e-20
2.24245e-20
4.05314e-21
-2.56009e-22
-2.43614e-21
3.90632e-21
3.30615e-21
3.89567e-21
4.79468e-21
3.49969e-21
5.13828e-22
-4.76483e-21
-3.96141e-21
9.36675e-21
6.20676e-21
1.41898e-21
6.35947e-22
3.71139e-22
-3.33512e-21
-1.71132e-21
1.4543e-20
1.19307e-20
7.22939e-21
9.39137e-21
4.852e-21
1.64012e-21
-3.63163e-21
1.25738e-21
1.0799e-20
1.20046e-20
5.04234e-21
2.12312e-21
3.39801e-21
6.08439e-21
6.94829e-22
-5.72255e-21
-5.26234e-21
5.39348e-22
7.29638e-22
-1.98356e-21
3.71106e-20
3.35074e-21
1.09635e-20
1.26354e-20
1.589e-20
6.28074e-21
4.51877e-22
1.26102e-21
6.75968e-21
9.44461e-21
4.59217e-21
8.41506e-21
6.76029e-21
-2.82992e-21
-3.38368e-21
-3.53091e-21
-3.21188e-21
-3.88544e-21
1.2039e-21
-4.09956e-24
-5.76776e-21
2.49647e-20
7.80141e-21
9.53851e-21
9.58228e-21
7.51812e-21
1.00575e-20
8.32133e-21
6.34472e-21
3.34522e-21
3.58491e-21
7.80291e-21
3.10938e-21
-2.5882e-21
-1.12753e-21
1.71124e-22
3.19997e-21
-2.82348e-21
-4.52232e-21
-5.70096e-22
-6.90401e-21
1.99275e-20
7.4369e-21
5.9275e-21
7.71793e-21
1.06593e-20
1.11389e-20
6.58973e-21
3.38432e-21
4.00711e-21
1.36242e-21
7.12355e-21
6.55681e-21
-1.45675e-21
-5.0594e-21
-9.60877e-22
1.62842e-21
1.91928e-21
-8.57155e-22
-9.60446e-22
6.26228e-20
-1.06257e-20
1.37148e-20
2.64026e-21
6.00511e-21
4.99505e-21
4.27152e-21
6.15866e-21
8.62413e-21
1.22736e-20
1.21702e-21
-8.93025e-21
-4.89093e-21
-1.28796e-21
4.03368e-23
7.32988e-21
6.24634e-21
1.90479e-21
-3.67475e-22
2.7181e-21
-1.93282e-20
1.73666e-20
2.54458e-21
7.21761e-21
3.3286e-21
4.55503e-21
8.19237e-21
9.82915e-21
8.10692e-21
1.91765e-21
-6.25728e-21
-8.88707e-21
-2.22662e-21
5.79714e-21
3.24795e-21
3.93468e-21
2.14141e-21
-2.00082e-22
2.03808e-21
3.39072e-21
-2.48353e-20
1.63572e-20
4.67689e-21
1.16923e-20
5.25802e-21
1.8727e-21
9.38061e-21
1.12083e-20
7.70118e-21
-7.24999e-21
-7.98101e-21
2.27327e-21
2.97621e-21
2.69543e-21
2.93218e-21
1.13406e-21
1.84292e-21
3.8072e-21
5.78449e-21
1.75325e-21
5.32533e-20
-2.49163e-20
9.99085e-21
9.37374e-21
8.94201e-21
2.6266e-21
-1.39329e-21
-2.1192e-21
9.5568e-22
7.43096e-22
3.59565e-21
-4.23896e-22
-2.25268e-21
-9.40083e-22
1.0115e-20
1.06216e-20
6.1109e-21
3.41186e-21
4.10357e-21
1.51789e-21
-4.41604e-20
1.57625e-20
9.69609e-22
1.28802e-20
3.55333e-21
-2.2942e-21
-4.71665e-21
-2.40748e-21
-2.18355e-21
3.68407e-21
5.28728e-21
-2.78389e-21
3.59948e-21
9.48482e-21
1.21889e-20
5.40442e-21
-8.41473e-22
-2.66374e-21
2.65551e-21
2.57931e-21
5.58043e-21
1.06573e-21
6.13049e-21
4.56177e-22
-1.64606e-21
-2.93277e-22
3.23067e-21
4.67013e-21
-2.59459e-22
-1.10906e-21
1.67319e-21
2.03103e-21
5.43909e-21
9.63331e-21
2.08949e-21
-2.47433e-21
-4.77114e-22
1.85731e-21
1.86269e-21
3.0984e-21
1.20872e-20
6.51313e-21
-6.57191e-21
-1.45964e-20
4.79965e-22
1.00171e-20
1.14174e-20
5.91897e-21
-5.43044e-21
-8.59916e-21
1.36937e-21
1.02163e-20
7.65247e-21
-6.20315e-22
-6.28683e-21
-1.20606e-21
1.84704e-21
4.6742e-21
1.7219e-21
4.21279e-22
-2.20911e-20
1.55594e-20
-5.95231e-21
-6.71299e-21
-1.28406e-21
2.71449e-21
1.86906e-21
-7.70377e-22
-1.55882e-21
2.92163e-21
6.72693e-21
3.68916e-21
7.33394e-22
-3.10513e-21
4.6904e-21
4.91974e-21
1.21373e-21
2.86991e-21
1.88304e-21
-2.27666e-21
2.53884e-20
-7.66494e-21
6.44683e-22
-9.6959e-22
1.98774e-21
4.25916e-21
-6.53114e-21
-1.10257e-20
-3.6395e-21
6.46951e-21
6.03899e-21
2.24354e-21
7.88038e-22
4.6752e-21
6.01358e-21
1.3938e-21
2.32526e-21
2.07104e-21
1.31335e-21
-7.55608e-22
-1.23168e-20
1.24006e-20
-8.96286e-21
-3.23649e-21
-3.30579e-21
1.38242e-22
-4.048e-21
-2.93174e-21
1.77854e-21
2.39479e-21
1.95498e-21
8.17225e-21
5.90171e-21
1.42133e-21
-1.10653e-21
3.66133e-21
7.87317e-21
1.35568e-21
-1.5372e-21
-8.11772e-22
1.55331e-20
-5.36968e-21
4.69421e-21
9.3743e-22
-5.32342e-21
-9.39311e-21
-3.56114e-21
1.5384e-21
1.83947e-21
-2.788e-21
-2.90272e-21
1.03342e-20
5.83378e-21
2.07227e-21
4.18736e-21
6.83839e-21
5.48396e-21
-4.36774e-22
-1.33044e-21
-6.33112e-22
2.65611e-20
-1.0117e-20
8.29706e-21
7.03575e-21
2.31005e-21
-7.26272e-21
-6.06876e-21
-5.07643e-21
-2.41255e-22
-3.20861e-21
3.08649e-22
3.90477e-21
4.50842e-21
9.52814e-21
7.11824e-21
1.39867e-22
-6.1748e-21
8.7319e-22
7.26663e-21
1.95336e-21
-2.94597e-20
1.84869e-20
5.43418e-21
3.72159e-21
-2.96776e-21
-4.53067e-21
-4.62168e-21
-2.75806e-21
-2.48481e-22
3.4363e-21
7.85043e-21
-4.89386e-21
-4.68067e-21
3.44792e-21
4.00933e-21
-1.08917e-21
-1.07998e-21
5.65709e-21
1.12233e-20
2.33899e-21
-5.36987e-21
7.52213e-21
8.52239e-21
5.36028e-22
-4.14022e-21
-1.86114e-21
-4.1603e-24
1.94159e-21
-3.0682e-21
2.16099e-22
2.24055e-21
-2.84224e-21
-4.12351e-21
-1.99684e-22
2.01431e-21
-1.31968e-21
3.01311e-21
3.9531e-21
5.29368e-21
6.24884e-22
)
;

boundaryField
{
    movingWall
    {
        type            zeroGradient;
    }
    fixedWalls
    {
        type            zeroGradient;
    }
    frontAndBack
    {
        type            empty;
    }
}


// ************************************************************************* //
