/*--------------------------------*- C++ -*----------------------------------*\
| =========                 |                                                 |
| \\      /  F ield         | OpenFOAM: The Open Source CFD Toolbox           |
|  \\    /   O peration     | Version:  2506                                  |
|   \\  /    A nd           | Website:  www.openfoam.com                      |
|    \\/     M anipulation  |                                                 |
\*---------------------------------------------------------------------------*/
FoamFile
{
    version     2.0;
    format      ascii;
    arch        "LSB;label=32;scalar=64";
    class       volScalarField;
    location    "6";
    object      initialResidual:p;
}
// * * * * * * * * * * * * * * * * * * * * * * * * * * * * * * * * * * * * * //

dimensions      [0 0 0 0 0 0 0];

internalField   nonuniform List<scalar> 
400
(
8.13151e-20
-8.88398e-21
-1.17907e-20
6.18645e-21
1.92152e-21
-1.61075e-21
3.54114e-21
-5.85847e-21
-1.27886e-22
1.27317e-20
-2.05625e-21
-2.17479e-20
-5.55713e-21
4.51348e-21
2.48329e-21
2.81195e-20
7.21305e-21
-6.62859e-22
-7.40594e-21
-1.35525e-20
-6.77612e-21
5.09014e-21
-1.42687e-20
4.34474e-21
2.14342e-20
-1.23265e-20
6.06562e-22
4.83478e-21
6.90006e-21
4.88128e-21
8.64276e-21
8.33586e-22
-1.25624e-20
1.1755e-20
7.82715e-21
-8.87176e-21
-2.15241e-20
-5.63667e-21
1.84491e-20
-1.35526e-20
6.77634e-21
1.67283e-21
-6.1035e-21
-5.01599e-21
7.40091e-21
-1.02479e-20
9.15029e-21
-3.13209e-21
1.90467e-21
2.20214e-20
4.67459e-21
-2.39932e-20
3.49199e-21
-8.42578e-22
3.93642e-21
-3.11095e-21
-3.78545e-21
-2.24634e-20
1.52016e-20
6.77626e-21
6.77612e-21
-1.48608e-20
1.06837e-20
2.89186e-21
2.98731e-21
-5.57295e-22
4.95996e-21
1.96048e-20
-2.87159e-20
4.84278e-21
1.13902e-20
5.72784e-21
-1.26261e-20
-2.40509e-21
-1.41984e-21
4.47407e-21
7.17079e-21
-1.84723e-21
-8.98243e-21
-1.28289e-26
1.35529e-20
-1.27851e-20
-1.33269e-20
2.32641e-20
1.14448e-21
-4.84274e-21
8.8761e-21
-7.409e-21
1.16244e-20
1.69024e-20
-1.70817e-20
-2.92812e-20
-5.35409e-21
1.83468e-20
-8.8314e-22
1.53963e-20
-6.94579e-21
5.26604e-21
-9.83422e-22
-6.77626e-21
-2.58092e-25
-6.32791e-21
1.60685e-20
-9.08266e-21
1.69034e-21
6.57679e-22
-6.5635e-21
-1.15803e-21
-2.71009e-21
1.15242e-20
6.66538e-21
-1.45872e-20
1.16904e-21
2.187e-22
-6.88868e-22
-5.39133e-21
9.32884e-21
1.47833e-20
-2.04448e-20
1.35525e-20
-6.77625e-21
-8.43745e-21
-1.36598e-20
4.70025e-21
-1.74681e-20
-1.4834e-21
-1.53371e-21
6.21178e-21
6.18112e-21
-1.80034e-20
-1.66729e-21
1.55409e-20
-8.36931e-21
8.5955e-21
-3.54158e-21
4.41294e-21
2.86674e-21
-4.31339e-21
7.57421e-21
1.08507e-26
-6.776e-21
-3.22945e-21
1.11632e-20
8.43966e-22
2.64472e-20
-1.47453e-20
-4.92411e-21
5.18312e-22
8.67786e-21
-1.11407e-20
-5.6882e-21
6.16735e-21
-1.15228e-20
-2.73385e-21
2.13886e-21
1.58383e-20
-5.322e-21
-7.00185e-21
8.91075e-21
-6.77627e-21
6.77615e-21
-1.13839e-20
-4.99123e-21
1.52143e-20
-8.37701e-21
-3.87455e-21
-1.69202e-20
-3.84499e-21
2.35098e-21
5.72946e-21
5.63451e-21
7.97754e-21
1.62215e-21
1.59651e-20
6.05569e-21
-1.94477e-21
-2.52392e-21
-1.96791e-21
-2.35097e-21
1.35525e-20
-1.35525e-20
7.33494e-21
-2.18787e-20
6.17685e-21
-1.10248e-20
-5.78673e-22
-2.23477e-21
5.05975e-21
-7.44095e-21
-5.17474e-21
4.64233e-21
1.48216e-20
-2.68705e-21
7.17158e-21
-6.41737e-21
4.55415e-21
2.36957e-21
-5.18258e-21
-5.232e-21
6.77627e-21
1.74287e-25
-1.43752e-20
-2.77019e-21
4.37968e-21
1.06601e-21
5.08384e-21
1.9784e-20
6.47646e-22
-1.30474e-20
2.3578e-21
-4.58384e-21
2.43789e-21
-8.62118e-21
5.72342e-21
6.32437e-21
9.0614e-21
-2.74233e-20
-7.41614e-22
-5.04304e-21
6.77629e-21
6.77611e-21
8.74906e-22
5.53135e-21
-1.6826e-20
-1.30946e-20
1.92023e-20
5.01587e-21
2.049e-21
-1.36085e-21
6.24696e-21
-1.04053e-20
1.19419e-20
1.09527e-20
-1.73302e-20
-9.04695e-21
-8.47995e-21
-1.25131e-20
1.69898e-20
7.87185e-21
-6.77626e-21
3.27498e-25
-2.70316e-21
1.18882e-21
-4.67257e-21
3.0343e-21
-2.03205e-21
4.14293e-21
8.36806e-21
-2.15859e-20
1.36867e-20
3.90296e-21
-9.29454e-21
2.45567e-21
-2.16914e-20
1.95084e-20
9.2179e-21
2.17016e-21
-4.63718e-21
7.5338e-21
5.70282e-27
6.77621e-21
5.71392e-21
-2.20892e-20
-1.24356e-21
6.37457e-22
7.08905e-21
-2.88153e-21
-1.02986e-20
8.13917e-22
5.44003e-21
-8.35485e-21
2.37118e-21
1.34763e-21
8.28043e-21
1.84768e-20
-1.08363e-20
1.79297e-21
-5.67875e-21
6.87021e-22
1.4888e-26
7.72659e-26
1.86344e-21
-1.68261e-20
1.24679e-20
5.24552e-21
5.87877e-21
-1.75276e-20
-2.25962e-21
-1.21967e-20
3.71299e-21
1.03553e-20
-2.72277e-21
-1.09997e-20
1.75308e-20
3.36184e-21
8.68591e-21
8.47797e-21
-6.11914e-21
-2.04945e-20
6.77629e-21
-6.77609e-21
1.20266e-20
4.10613e-21
-3.49294e-21
3.26229e-21
1.76629e-20
-1.68608e-21
-6.4823e-21
-4.37306e-21
1.81299e-21
-2.48954e-21
1.74521e-22
-2.76914e-21
1.9585e-21
-5.32776e-21
-2.25892e-21
1.17975e-20
4.46426e-22
-1.1488e-21
1.90696e-26
-2.0329e-20
2.72718e-20
4.79762e-21
1.45217e-20
-1.04982e-20
3.39196e-22
-9.75246e-21
-7.05089e-21
-7.36507e-21
-7.3798e-21
-1.99365e-20
-7.30479e-21
1.30128e-20
4.48569e-21
1.83146e-20
1.55668e-20
-1.33369e-20
-1.31716e-20
1.21313e-21
6.77629e-21
6.77647e-21
1.60965e-20
1.76157e-21
1.13132e-21
-8.34434e-21
2.97414e-21
3.80774e-21
-2.67687e-21
1.23957e-21
1.63003e-21
3.34394e-21
-6.05499e-21
-5.36408e-21
1.24868e-20
-1.13521e-20
-6.45031e-21
-1.12092e-21
3.90793e-21
5.47618e-21
2.66023e-26
-6.77599e-21
1.89602e-21
5.71261e-21
2.78785e-22
-3.52046e-21
-2.62788e-21
-1.53923e-20
2.05903e-20
-7.37167e-21
8.60598e-22
-5.40587e-21
-9.86848e-21
-1.4321e-21
-6.18858e-21
1.59694e-20
-1.31907e-20
3.66783e-21
-8.23185e-21
5.19907e-21
6.77628e-21
2.03286e-20
-6.77605e-21
-1.35526e-20
2.71731e-26
-6.77625e-21
6.77628e-21
6.77628e-21
2.01795e-26
1.47702e-26
6.77628e-21
1.41336e-26
-6.77625e-21
-6.77626e-21
1.89405e-26
6.91529e-27
-6.77625e-21
1.60867e-26
7.03277e-27
-2.03288e-20
6.77627e-21
)
;

boundaryField
{
    movingWall
    {
        type            zeroGradient;
    }
    fixedWalls
    {
        type            zeroGradient;
    }
    frontAndBack
    {
        type            empty;
    }
}


// ************************************************************************* //
