/*--------------------------------*- C++ -*----------------------------------*\
| =========                 |                                                 |
| \\      /  F ield         | OpenFOAM: The Open Source CFD Toolbox           |
|  \\    /   O peration     | Version:  2506                                  |
|   \\  /    A nd           | Website:  www.openfoam.com                      |
|    \\/     M anipulation  |                                                 |
\*---------------------------------------------------------------------------*/
FoamFile
{
    version     2.0;
    format      ascii;
    arch        "LSB;label=32;scalar=64";
    class       volScalarField;
    location    "6";
    object      k2;
}
// * * * * * * * * * * * * * * * * * * * * * * * * * * * * * * * * * * * * * //

dimensions      [0 4 -4 0 0 0 0];

internalField   nonuniform List<scalar> 
400
(
7.58184e-11
7.58182e-11
7.5818e-11
7.58179e-11
7.58177e-11
7.58177e-11
7.58175e-11
7.58175e-11
7.58174e-11
7.58174e-11
7.58172e-11
7.58173e-11
7.58172e-11
7.58172e-11
7.58171e-11
7.58172e-11
7.58171e-11
7.58172e-11
7.58171e-11
7.58171e-11
8.37257e-11
8.37259e-11
8.37142e-11
8.37096e-11
8.37015e-11
8.36976e-11
8.36907e-11
8.36873e-11
8.36815e-11
8.36786e-11
8.36739e-11
8.36715e-11
8.36677e-11
8.3666e-11
8.36632e-11
8.36621e-11
8.36604e-11
8.36598e-11
8.36592e-11
8.3659e-11
9.56041e-11
9.56039e-11
9.55892e-11
9.55835e-11
9.55741e-11
9.55682e-11
9.55608e-11
9.55551e-11
9.55494e-11
9.55442e-11
9.554e-11
9.55355e-11
9.55325e-11
9.55289e-11
9.55268e-11
9.55244e-11
9.55231e-11
9.55219e-11
9.55213e-11
9.55211e-11
1.07122e-10
1.07121e-10
1.07104e-10
1.07098e-10
1.07086e-10
1.0708e-10
1.07069e-10
1.07064e-10
1.07056e-10
1.07052e-10
1.07045e-10
1.07041e-10
1.07036e-10
1.07033e-10
1.07029e-10
1.07028e-10
1.07025e-10
1.07024e-10
1.07023e-10
1.07023e-10
1.15922e-10
1.15922e-10
1.15903e-10
1.15895e-10
1.15881e-10
1.15875e-10
1.15863e-10
1.15858e-10
1.15848e-10
1.15843e-10
1.15835e-10
1.15831e-10
1.15825e-10
1.15822e-10
1.15818e-10
1.15816e-10
1.15813e-10
1.15812e-10
1.15811e-10
1.15811e-10
1.21746e-10
1.21746e-10
1.21725e-10
1.21717e-10
1.21702e-10
1.21695e-10
1.21682e-10
1.21676e-10
1.21666e-10
1.21661e-10
1.21652e-10
1.21648e-10
1.21641e-10
1.21638e-10
1.21634e-10
1.21632e-10
1.21629e-10
1.21628e-10
1.21627e-10
1.21626e-10
1.2532e-10
1.2532e-10
1.25298e-10
1.25289e-10
1.25275e-10
1.25266e-10
1.25255e-10
1.25247e-10
1.25238e-10
1.2523e-10
1.25224e-10
1.25217e-10
1.25212e-10
1.25207e-10
1.25204e-10
1.252e-10
1.25198e-10
1.25196e-10
1.25195e-10
1.25195e-10
1.27492e-10
1.27492e-10
1.27469e-10
1.27461e-10
1.27445e-10
1.27438e-10
1.27424e-10
1.27417e-10
1.27406e-10
1.27401e-10
1.27392e-10
1.27387e-10
1.2738e-10
1.27377e-10
1.27372e-10
1.2737e-10
1.27366e-10
1.27365e-10
1.27364e-10
1.27364e-10
1.28896e-10
1.28895e-10
1.28872e-10
1.28863e-10
1.28849e-10
1.28839e-10
1.28827e-10
1.28819e-10
1.28809e-10
1.28802e-10
1.28794e-10
1.28788e-10
1.28782e-10
1.28777e-10
1.28774e-10
1.2877e-10
1.28768e-10
1.28766e-10
1.28765e-10
1.28765e-10
1.29923e-10
1.29923e-10
1.299e-10
1.29891e-10
1.29875e-10
1.29867e-10
1.29853e-10
1.29846e-10
1.29835e-10
1.29829e-10
1.2982e-10
1.29815e-10
1.29808e-10
1.29804e-10
1.29799e-10
1.29797e-10
1.29794e-10
1.29792e-10
1.29791e-10
1.29791e-10
1.30799e-10
1.30798e-10
1.30775e-10
1.30766e-10
1.3075e-10
1.30741e-10
1.30728e-10
1.3072e-10
1.30709e-10
1.30703e-10
1.30694e-10
1.30688e-10
1.30682e-10
1.30677e-10
1.30673e-10
1.3067e-10
1.30668e-10
1.30666e-10
1.30665e-10
1.30665e-10
1.31644e-10
1.31644e-10
1.3162e-10
1.31611e-10
1.31595e-10
1.31586e-10
1.31574e-10
1.31564e-10
1.31556e-10
1.31547e-10
1.3154e-10
1.31533e-10
1.31528e-10
1.31522e-10
1.31519e-10
1.31515e-10
1.31512e-10
1.3151e-10
1.3151e-10
1.31509e-10
1.32533e-10
1.32533e-10
1.32508e-10
1.32499e-10
1.32483e-10
1.32474e-10
1.3246e-10
1.32453e-10
1.32441e-10
1.32436e-10
1.32426e-10
1.32421e-10
1.32414e-10
1.3241e-10
1.32405e-10
1.32402e-10
1.32399e-10
1.32398e-10
1.32397e-10
1.32396e-10
1.3351e-10
1.3351e-10
1.33485e-10
1.33476e-10
1.3346e-10
1.3345e-10
1.33438e-10
1.33429e-10
1.33418e-10
1.33411e-10
1.33403e-10
1.33396e-10
1.3339e-10
1.33385e-10
1.33381e-10
1.33378e-10
1.33375e-10
1.33373e-10
1.33372e-10
1.33372e-10
1.34607e-10
1.34607e-10
1.34582e-10
1.34572e-10
1.34556e-10
1.34547e-10
1.34534e-10
1.34525e-10
1.34515e-10
1.34506e-10
1.34499e-10
1.34492e-10
1.34487e-10
1.3448e-10
1.34477e-10
1.34473e-10
1.34471e-10
1.34469e-10
1.34468e-10
1.34467e-10
1.35834e-10
1.35834e-10
1.3581e-10
1.358e-10
1.35782e-10
1.35774e-10
1.35759e-10
1.35752e-10
1.3574e-10
1.35734e-10
1.35724e-10
1.35719e-10
1.35711e-10
1.35707e-10
1.35701e-10
1.35699e-10
1.35696e-10
1.35694e-10
1.35693e-10
1.35693e-10
1.37158e-10
1.37158e-10
1.37132e-10
1.37123e-10
1.37105e-10
1.37097e-10
1.37082e-10
1.37074e-10
1.37062e-10
1.37056e-10
1.37045e-10
1.37041e-10
1.37032e-10
1.37029e-10
1.37023e-10
1.37021e-10
1.37017e-10
1.37016e-10
1.37015e-10
1.37014e-10
1.38465e-10
1.38465e-10
1.3844e-10
1.3843e-10
1.38412e-10
1.38403e-10
1.38389e-10
1.38381e-10
1.38369e-10
1.38361e-10
1.38352e-10
1.38346e-10
1.38339e-10
1.38334e-10
1.3833e-10
1.38326e-10
1.38323e-10
1.38321e-10
1.3832e-10
1.3832e-10
1.39551e-10
1.39551e-10
1.39526e-10
1.39516e-10
1.395e-10
1.3949e-10
1.39477e-10
1.39468e-10
1.39457e-10
1.39449e-10
1.39441e-10
1.39434e-10
1.39428e-10
1.39422e-10
1.39418e-10
1.39414e-10
1.39412e-10
1.3941e-10
1.39409e-10
1.39408e-10
1.40039e-10
1.40039e-10
1.40039e-10
1.40038e-10
1.40038e-10
1.40038e-10
1.40038e-10
1.40038e-10
1.40038e-10
1.40037e-10
1.40037e-10
1.40037e-10
1.40037e-10
1.40037e-10
1.40037e-10
1.40037e-10
1.40037e-10
1.40037e-10
1.40037e-10
1.40037e-10
)
;

boundaryField
{
    movingWall
    {
        type            calculated;
        value           nonuniform List<scalar> 
20
(
1.40039e-10
1.40039e-10
1.40039e-10
1.40038e-10
1.40038e-10
1.40038e-10
1.40038e-10
1.40038e-10
1.40038e-10
1.40037e-10
1.40037e-10
1.40037e-10
1.40037e-10
1.40037e-10
1.40037e-10
1.40037e-10
1.40037e-10
1.40037e-10
1.40037e-10
1.40037e-10
)
;
    }
    fixedWalls
    {
        type            calculated;
        value           nonuniform List<scalar> 
60
(
7.58184e-11
8.37257e-11
9.56041e-11
1.07122e-10
1.15922e-10
1.21746e-10
1.2532e-10
1.27492e-10
1.28896e-10
1.29923e-10
1.30799e-10
1.31644e-10
1.32533e-10
1.3351e-10
1.34607e-10
1.35834e-10
1.37158e-10
1.38465e-10
1.39551e-10
1.40039e-10
7.58171e-11
8.3659e-11
9.55211e-11
1.07023e-10
1.15811e-10
1.21626e-10
1.25195e-10
1.27364e-10
1.28765e-10
1.29791e-10
1.30665e-10
1.31509e-10
1.32396e-10
1.33372e-10
1.34467e-10
1.35693e-10
1.37014e-10
1.3832e-10
1.39408e-10
1.40037e-10
7.58184e-11
7.58182e-11
7.5818e-11
7.58179e-11
7.58177e-11
7.58177e-11
7.58175e-11
7.58175e-11
7.58174e-11
7.58174e-11
7.58172e-11
7.58173e-11
7.58172e-11
7.58172e-11
7.58171e-11
7.58172e-11
7.58171e-11
7.58172e-11
7.58171e-11
7.58171e-11
)
;
    }
    frontAndBack
    {
        type            empty;
    }
}


// ************************************************************************* //
