/*--------------------------------*- C++ -*----------------------------------*\
| =========                 |                                                 |
| \\      /  F ield         | OpenFOAM: The Open Source CFD Toolbox           |
|  \\    /   O peration     | Version:  2506                                  |
|   \\  /    A nd           | Website:  www.openfoam.com                      |
|    \\/     M anipulation  |                                                 |
\*---------------------------------------------------------------------------*/
FoamFile
{
    version     2.0;
    format      ascii;
    arch        "LSB;label=32;scalar=64";
    class       volScalarField;
    location    "6";
    object      kDiff;
}
// * * * * * * * * * * * * * * * * * * * * * * * * * * * * * * * * * * * * * //

dimensions      [0 2 -2 0 0 0 0];

internalField   nonuniform List<scalar> 
400
(
-1.95598e-08
-1.95615e-08
-1.95594e-08
-1.95642e-08
-1.95578e-08
-1.95632e-08
-1.95572e-08
-1.95636e-08
-1.95572e-08
-1.95632e-08
-1.95575e-08
-1.95615e-08
-1.95583e-08
-1.9562e-08
-1.95583e-08
-1.95617e-08
-1.9559e-08
-1.95609e-08
-1.956e-08
-1.95602e-08
-2.17283e-08
-2.17114e-08
-2.17763e-08
-2.17568e-08
-2.16794e-08
-2.17614e-08
-2.16841e-08
-2.17468e-08
-2.1697e-08
-2.17506e-08
-2.16846e-08
-2.1755e-08
-2.16814e-08
-2.1749e-08
-2.16865e-08
-2.17382e-08
-2.1696e-08
-2.17239e-08
-2.17122e-08
-2.17157e-08
-2.4614e-08
-2.46074e-08
-2.46402e-08
-2.4605e-08
-2.46112e-08
-2.46202e-08
-2.45904e-08
-2.46298e-08
-2.45742e-08
-2.46376e-08
-2.45657e-08
-2.46388e-08
-2.45659e-08
-2.4633e-08
-2.4574e-08
-2.46212e-08
-2.45877e-08
-2.46075e-08
-2.45975e-08
-2.45982e-08
-2.70338e-08
-2.7016e-08
-2.70667e-08
-2.70431e-08
-2.70272e-08
-2.70498e-08
-2.70081e-08
-2.70679e-08
-2.69662e-08
-2.7074e-08
-2.69648e-08
-2.70633e-08
-2.69757e-08
-2.70536e-08
-2.69791e-08
-2.70395e-08
-2.69923e-08
-2.7023e-08
-2.70111e-08
-2.70147e-08
-2.86531e-08
-2.86398e-08
-2.86692e-08
-2.86591e-08
-2.86453e-08
-2.86542e-08
-2.86422e-08
-2.86731e-08
-2.85976e-08
-2.86924e-08
-2.85707e-08
-2.86862e-08
-2.85801e-08
-2.86741e-08
-2.85878e-08
-2.86576e-08
-2.86033e-08
-2.86388e-08
-2.86249e-08
-2.86291e-08
-2.96104e-08
-2.95983e-08
-2.96465e-08
-2.96493e-08
-2.95724e-08
-2.96711e-08
-2.95188e-08
-2.96758e-08
-2.95125e-08
-2.96631e-08
-2.95236e-08
-2.96553e-08
-2.95261e-08
-2.96437e-08
-2.95354e-08
-2.96228e-08
-2.95552e-08
-2.95991e-08
-2.95816e-08
-2.9587e-08
-3.0144e-08
-3.01068e-08
-3.02427e-08
-3.01325e-08
-3.01536e-08
-3.01559e-08
-3.01225e-08
-3.01698e-08
-3.01029e-08
-3.01806e-08
-3.00925e-08
-3.01819e-08
-3.00929e-08
-3.01739e-08
-3.01029e-08
-3.01588e-08
-3.01195e-08
-3.01423e-08
-3.01307e-08
-3.01313e-08
-3.04969e-08
-3.05426e-08
-3.03852e-08
-3.05458e-08
-3.04e-08
-3.0532e-08
-3.0408e-08
-3.05334e-08
-3.038e-08
-3.05345e-08
-3.03736e-08
-3.05208e-08
-3.03885e-08
-3.05018e-08
-3.04051e-08
-3.04838e-08
-3.04211e-08
-3.04618e-08
-3.04448e-08
-3.04501e-08
-3.06677e-08
-3.06163e-08
-3.08001e-08
-3.06499e-08
-3.06825e-08
-3.07005e-08
-3.06434e-08
-3.07116e-08
-3.06305e-08
-3.07128e-08
-3.06182e-08
-3.07004e-08
-3.06201e-08
-3.06962e-08
-3.0628e-08
-3.06853e-08
-3.06451e-08
-3.06698e-08
-3.06575e-08
-3.06581e-08
-3.08404e-08
-3.08223e-08
-3.08978e-08
-3.08794e-08
-3.07997e-08
-3.09004e-08
-3.07416e-08
-3.0898e-08
-3.07606e-08
-3.08947e-08
-3.0755e-08
-3.08921e-08
-3.07504e-08
-3.08756e-08
-3.0765e-08
-3.08521e-08
-3.07867e-08
-3.08289e-08
-3.08122e-08
-3.08173e-08
-3.09853e-08
-3.09582e-08
-3.10375e-08
-3.09743e-08
-3.09935e-08
-3.09748e-08
-3.09648e-08
-3.09948e-08
-3.09412e-08
-3.09922e-08
-3.09394e-08
-3.09928e-08
-3.09374e-08
-3.09888e-08
-3.09426e-08
-3.09778e-08
-3.09543e-08
-3.09668e-08
-3.09602e-08
-3.09598e-08
-3.11146e-08
-3.10774e-08
-3.12242e-08
-3.11009e-08
-3.11222e-08
-3.1133e-08
-3.1085e-08
-3.11546e-08
-3.10625e-08
-3.11667e-08
-3.10509e-08
-3.11664e-08
-3.1052e-08
-3.11556e-08
-3.10651e-08
-3.11372e-08
-3.10857e-08
-3.11165e-08
-3.1101e-08
-3.11023e-08
-3.12981e-08
-3.13268e-08
-3.12282e-08
-3.13399e-08
-3.12147e-08
-3.13457e-08
-3.11938e-08
-3.13517e-08
-3.11757e-08
-3.13461e-08
-3.11768e-08
-3.13305e-08
-3.11882e-08
-3.13105e-08
-3.12056e-08
-3.1291e-08
-3.12223e-08
-3.12662e-08
-3.12499e-08
-3.12548e-08
-3.14503e-08
-3.14207e-08
-3.15003e-08
-3.14366e-08
-3.14586e-08
-3.14398e-08
-3.14353e-08
-3.14582e-08
-3.14008e-08
-3.14614e-08
-3.13991e-08
-3.14592e-08
-3.14005e-08
-3.14531e-08
-3.1407e-08
-3.14422e-08
-3.14189e-08
-3.14313e-08
-3.14248e-08
-3.14243e-08
-3.16414e-08
-3.16232e-08
-3.16943e-08
-3.16269e-08
-3.16341e-08
-3.16526e-08
-3.16023e-08
-3.16662e-08
-3.15805e-08
-3.16756e-08
-3.15673e-08
-3.16785e-08
-3.15671e-08
-3.1669e-08
-3.1579e-08
-3.16512e-08
-3.16001e-08
-3.1631e-08
-3.16156e-08
-3.16168e-08
-3.18604e-08
-3.18372e-08
-3.19126e-08
-3.18761e-08
-3.18519e-08
-3.18882e-08
-3.1817e-08
-3.19062e-08
-3.17716e-08
-3.18909e-08
-3.18048e-08
-3.18865e-08
-3.1797e-08
-3.18807e-08
-3.17957e-08
-3.18654e-08
-3.181e-08
-3.18462e-08
-3.18319e-08
-3.18363e-08
-3.21334e-08
-3.2192e-08
-3.19969e-08
-3.21943e-08
-3.2017e-08
-3.21861e-08
-3.20124e-08
-3.21895e-08
-3.19876e-08
-3.21866e-08
-3.1984e-08
-3.2169e-08
-3.20003e-08
-3.21445e-08
-3.20222e-08
-3.21215e-08
-3.20433e-08
-3.20933e-08
-3.20739e-08
-3.20799e-08
-3.23489e-08
-3.23146e-08
-3.24262e-08
-3.23366e-08
-3.23549e-08
-3.23576e-08
-3.233e-08
-3.23589e-08
-3.23175e-08
-3.23616e-08
-3.23076e-08
-3.23645e-08
-3.23047e-08
-3.2361e-08
-3.23107e-08
-3.2349e-08
-3.23232e-08
-3.23367e-08
-3.23296e-08
-3.23292e-08
-3.25661e-08
-3.25557e-08
-3.26019e-08
-3.25565e-08
-3.25615e-08
-3.25811e-08
-3.25346e-08
-3.25966e-08
-3.25088e-08
-3.2605e-08
-3.2499e-08
-3.25989e-08
-3.25015e-08
-3.25852e-08
-3.25093e-08
-3.25756e-08
-3.2528e-08
-3.25573e-08
-3.25426e-08
-3.25436e-08
-3.26674e-08
-3.26729e-08
-3.26753e-08
-3.26671e-08
-3.26744e-08
-3.26652e-08
-3.26759e-08
-3.26642e-08
-3.26763e-08
-3.26644e-08
-3.26754e-08
-3.26659e-08
-3.26734e-08
-3.26682e-08
-3.26708e-08
-3.267e-08
-3.26702e-08
-3.26703e-08
-3.26703e-08
-3.26703e-08
)
;

boundaryField
{
    movingWall
    {
        type            calculated;
        value           nonuniform List<scalar> 
20
(
-3.26674e-08
-3.26729e-08
-3.26753e-08
-3.26671e-08
-3.26744e-08
-3.26652e-08
-3.26759e-08
-3.26642e-08
-3.26763e-08
-3.26644e-08
-3.26754e-08
-3.26659e-08
-3.26734e-08
-3.26682e-08
-3.26708e-08
-3.267e-08
-3.26702e-08
-3.26703e-08
-3.26703e-08
-3.26703e-08
)
;
    }
    fixedWalls
    {
        type            calculated;
        value           nonuniform List<scalar> 
60
(
-1.95598e-08
-2.17283e-08
-2.4614e-08
-2.70338e-08
-2.86531e-08
-2.96104e-08
-3.0144e-08
-3.04969e-08
-3.06677e-08
-3.08404e-08
-3.09853e-08
-3.11146e-08
-3.12981e-08
-3.14503e-08
-3.16414e-08
-3.18604e-08
-3.21334e-08
-3.23489e-08
-3.25661e-08
-3.26674e-08
-1.95602e-08
-2.17157e-08
-2.45982e-08
-2.70147e-08
-2.86291e-08
-2.9587e-08
-3.01313e-08
-3.04501e-08
-3.06581e-08
-3.08173e-08
-3.09598e-08
-3.11023e-08
-3.12548e-08
-3.14243e-08
-3.16168e-08
-3.18363e-08
-3.20799e-08
-3.23292e-08
-3.25436e-08
-3.26703e-08
-1.95598e-08
-1.95615e-08
-1.95594e-08
-1.95642e-08
-1.95578e-08
-1.95632e-08
-1.95572e-08
-1.95636e-08
-1.95572e-08
-1.95632e-08
-1.95575e-08
-1.95615e-08
-1.95583e-08
-1.9562e-08
-1.95583e-08
-1.95617e-08
-1.9559e-08
-1.95609e-08
-1.956e-08
-1.95602e-08
)
;
    }
    frontAndBack
    {
        type            empty;
    }
}


// ************************************************************************* //
