/*--------------------------------*- C++ -*----------------------------------*\
| =========                 |                                                 |
| \\      /  F ield         | OpenFOAM: The Open Source CFD Toolbox           |
|  \\    /   O peration     | Version:  2506                                  |
|   \\  /    A nd           | Website:  www.openfoam.com                      |
|    \\/     M anipulation  |                                                 |
\*---------------------------------------------------------------------------*/
FoamFile
{
    version     2.0;
    format      ascii;
    arch        "LSB;label=32;scalar=64";
    class       volScalarField;
    location    "6";
    object      kTotal;
}
// * * * * * * * * * * * * * * * * * * * * * * * * * * * * * * * * * * * * * //

dimensions      [0 2 -2 0 0 0 0];

internalField   nonuniform List<scalar> 
400
(
1.74148e-05
1.74147e-05
1.74147e-05
1.74147e-05
1.74147e-05
1.74147e-05
1.74147e-05
1.74147e-05
1.74146e-05
1.74146e-05
1.74146e-05
1.74146e-05
1.74146e-05
1.74146e-05
1.74146e-05
1.74146e-05
1.74146e-05
1.74146e-05
1.74146e-05
1.74146e-05
1.83004e-05
1.83004e-05
1.82991e-05
1.82986e-05
1.82977e-05
1.82973e-05
1.82965e-05
1.82962e-05
1.82955e-05
1.82952e-05
1.82947e-05
1.82944e-05
1.8294e-05
1.82938e-05
1.82935e-05
1.82934e-05
1.82932e-05
1.82932e-05
1.82931e-05
1.82931e-05
1.95555e-05
1.95555e-05
1.9554e-05
1.95534e-05
1.95524e-05
1.95518e-05
1.95511e-05
1.95505e-05
1.95499e-05
1.95494e-05
1.95489e-05
1.95485e-05
1.95482e-05
1.95478e-05
1.95476e-05
1.95473e-05
1.95472e-05
1.95471e-05
1.9547e-05
1.9547e-05
2.06999e-05
2.06999e-05
2.06983e-05
2.06976e-05
2.06964e-05
2.06959e-05
2.06949e-05
2.06944e-05
2.06936e-05
2.06932e-05
2.06925e-05
2.06922e-05
2.06916e-05
2.06914e-05
2.0691e-05
2.06908e-05
2.06906e-05
2.06905e-05
2.06904e-05
2.06904e-05
2.15334e-05
2.15334e-05
2.15316e-05
2.15309e-05
2.15297e-05
2.15291e-05
2.1528e-05
2.15274e-05
2.15266e-05
2.15261e-05
2.15254e-05
2.1525e-05
2.15244e-05
2.15242e-05
2.15238e-05
2.15236e-05
2.15233e-05
2.15233e-05
2.15232e-05
2.15231e-05
2.20677e-05
2.20677e-05
2.20658e-05
2.20651e-05
2.20637e-05
2.20631e-05
2.2062e-05
2.20614e-05
2.20605e-05
2.206e-05
2.20592e-05
2.20589e-05
2.20583e-05
2.2058e-05
2.20575e-05
2.20574e-05
2.20571e-05
2.2057e-05
2.20569e-05
2.20569e-05
2.23893e-05
2.23893e-05
2.23873e-05
2.23866e-05
2.23853e-05
2.23845e-05
2.23835e-05
2.23827e-05
2.2382e-05
2.23813e-05
2.23807e-05
2.23801e-05
2.23797e-05
2.23792e-05
2.23789e-05
2.23786e-05
2.23784e-05
2.23782e-05
2.23782e-05
2.23781e-05
2.25825e-05
2.25825e-05
2.25805e-05
2.25797e-05
2.25784e-05
2.25777e-05
2.25765e-05
2.25759e-05
2.25749e-05
2.25744e-05
2.25736e-05
2.25732e-05
2.25726e-05
2.25723e-05
2.25718e-05
2.25716e-05
2.25714e-05
2.25713e-05
2.25712e-05
2.25711e-05
2.27065e-05
2.27064e-05
2.27044e-05
2.27036e-05
2.27023e-05
2.27015e-05
2.27004e-05
2.26997e-05
2.26988e-05
2.26982e-05
2.26975e-05
2.26969e-05
2.26965e-05
2.2696e-05
2.26957e-05
2.26954e-05
2.26952e-05
2.2695e-05
2.2695e-05
2.26949e-05
2.27968e-05
2.27968e-05
2.27947e-05
2.27939e-05
2.27925e-05
2.27918e-05
2.27906e-05
2.27901e-05
2.2789e-05
2.27885e-05
2.27877e-05
2.27873e-05
2.27867e-05
2.27864e-05
2.27859e-05
2.27857e-05
2.27854e-05
2.27853e-05
2.27852e-05
2.27852e-05
2.28735e-05
2.28734e-05
2.28714e-05
2.28706e-05
2.28692e-05
2.28684e-05
2.28673e-05
2.28666e-05
2.28657e-05
2.28651e-05
2.28644e-05
2.28638e-05
2.28633e-05
2.28629e-05
2.28625e-05
2.28622e-05
2.2862e-05
2.28619e-05
2.28618e-05
2.28617e-05
2.29473e-05
2.29473e-05
2.29452e-05
2.29444e-05
2.2943e-05
2.29422e-05
2.29412e-05
2.29403e-05
2.29396e-05
2.29388e-05
2.29382e-05
2.29376e-05
2.29371e-05
2.29366e-05
2.29363e-05
2.2936e-05
2.29358e-05
2.29356e-05
2.29355e-05
2.29355e-05
2.30246e-05
2.30246e-05
2.30225e-05
2.30217e-05
2.30203e-05
2.30195e-05
2.30183e-05
2.30177e-05
2.30167e-05
2.30162e-05
2.30153e-05
2.30149e-05
2.30142e-05
2.30139e-05
2.30135e-05
2.30133e-05
2.3013e-05
2.30129e-05
2.30128e-05
2.30127e-05
2.31093e-05
2.31093e-05
2.31072e-05
2.31064e-05
2.3105e-05
2.31042e-05
2.31031e-05
2.31023e-05
2.31014e-05
2.31008e-05
2.31e-05
2.30995e-05
2.3099e-05
2.30985e-05
2.30982e-05
2.30979e-05
2.30977e-05
2.30975e-05
2.30974e-05
2.30974e-05
2.32041e-05
2.3204e-05
2.32019e-05
2.32011e-05
2.31997e-05
2.31989e-05
2.31978e-05
2.3197e-05
2.31961e-05
2.31954e-05
2.31948e-05
2.31941e-05
2.31937e-05
2.31932e-05
2.31929e-05
2.31925e-05
2.31923e-05
2.31922e-05
2.31921e-05
2.3192e-05
2.33096e-05
2.33096e-05
2.33075e-05
2.33067e-05
2.33052e-05
2.33044e-05
2.33032e-05
2.33025e-05
2.33015e-05
2.3301e-05
2.33001e-05
2.32997e-05
2.3299e-05
2.32987e-05
2.32982e-05
2.3298e-05
2.32977e-05
2.32976e-05
2.32975e-05
2.32975e-05
2.34229e-05
2.34229e-05
2.34207e-05
2.34199e-05
2.34184e-05
2.34177e-05
2.34164e-05
2.34158e-05
2.34147e-05
2.34142e-05
2.34133e-05
2.34129e-05
2.34122e-05
2.34119e-05
2.34114e-05
2.34112e-05
2.34109e-05
2.34108e-05
2.34107e-05
2.34106e-05
2.35343e-05
2.35343e-05
2.35321e-05
2.35313e-05
2.35298e-05
2.3529e-05
2.35278e-05
2.35271e-05
2.35261e-05
2.35254e-05
2.35247e-05
2.35241e-05
2.35236e-05
2.35231e-05
2.35227e-05
2.35224e-05
2.35222e-05
2.3522e-05
2.3522e-05
2.35219e-05
2.36264e-05
2.36264e-05
2.36243e-05
2.36234e-05
2.36221e-05
2.36212e-05
2.36201e-05
2.36193e-05
2.36184e-05
2.36177e-05
2.3617e-05
2.36164e-05
2.36159e-05
2.36154e-05
2.36151e-05
2.36148e-05
2.36146e-05
2.36144e-05
2.36143e-05
2.36143e-05
2.36677e-05
2.36676e-05
2.36676e-05
2.36676e-05
2.36676e-05
2.36675e-05
2.36675e-05
2.36675e-05
2.36675e-05
2.36675e-05
2.36675e-05
2.36675e-05
2.36675e-05
2.36675e-05
2.36675e-05
2.36675e-05
2.36675e-05
2.36675e-05
2.36675e-05
2.36675e-05
)
;

boundaryField
{
    movingWall
    {
        type            calculated;
        value           nonuniform List<scalar> 
20
(
2.36677e-05
2.36676e-05
2.36676e-05
2.36676e-05
2.36676e-05
2.36675e-05
2.36675e-05
2.36675e-05
2.36675e-05
2.36675e-05
2.36675e-05
2.36675e-05
2.36675e-05
2.36675e-05
2.36675e-05
2.36675e-05
2.36675e-05
2.36675e-05
2.36675e-05
2.36675e-05
)
;
    }
    fixedWalls
    {
        type            calculated;
        value           nonuniform List<scalar> 
60
(
1.74148e-05
1.83004e-05
1.95555e-05
2.06999e-05
2.15334e-05
2.20677e-05
2.23893e-05
2.25825e-05
2.27065e-05
2.27968e-05
2.28735e-05
2.29473e-05
2.30246e-05
2.31093e-05
2.32041e-05
2.33096e-05
2.34229e-05
2.35343e-05
2.36264e-05
2.36677e-05
1.74146e-05
1.82931e-05
1.9547e-05
2.06904e-05
2.15231e-05
2.20569e-05
2.23781e-05
2.25711e-05
2.26949e-05
2.27852e-05
2.28617e-05
2.29355e-05
2.30127e-05
2.30974e-05
2.3192e-05
2.32975e-05
2.34106e-05
2.35219e-05
2.36143e-05
2.36675e-05
1.74148e-05
1.74147e-05
1.74147e-05
1.74147e-05
1.74147e-05
1.74147e-05
1.74147e-05
1.74147e-05
1.74146e-05
1.74146e-05
1.74146e-05
1.74146e-05
1.74146e-05
1.74146e-05
1.74146e-05
1.74146e-05
1.74146e-05
1.74146e-05
1.74146e-05
1.74146e-05
)
;
    }
    frontAndBack
    {
        type            empty;
    }
}


// ************************************************************************* //
