/*--------------------------------*- C++ -*----------------------------------*\
| =========                 |                                                 |
| \\      /  F ield         | OpenFOAM: The Open Source CFD Toolbox           |
|  \\    /   O peration     | Version:  2506                                  |
|   \\  /    A nd           | Website:  www.openfoam.com                      |
|    \\/     M anipulation  |                                                 |
\*---------------------------------------------------------------------------*/
FoamFile
{
    version     2.0;
    format      ascii;
    arch        "LSB;label=32;scalar=64";
    class       volVectorField;
    location    "6";
    object      kU;
}
// * * * * * * * * * * * * * * * * * * * * * * * * * * * * * * * * * * * * * //

dimensions      [0 3 -3 0 0 0 0];

internalField   nonuniform List<vector> 
400
(
(-8.6976e-06 9.86912e-19 0)
(-8.69759e-06 -2.08043e-19 0)
(-8.69758e-06 5.02177e-20 0)
(-8.69757e-06 -9.33158e-21 0)
(-8.69757e-06 3.06254e-21 0)
(-8.69756e-06 8.14142e-22 0)
(-8.69755e-06 1.82804e-21 0)
(-8.69755e-06 1.38282e-21 0)
(-8.69754e-06 7.92276e-22 0)
(-8.69754e-06 1.94833e-22 0)
(-8.69754e-06 3.13293e-22 0)
(-8.69754e-06 1.57078e-22 0)
(-8.69753e-06 -1.9094e-22 0)
(-8.69753e-06 -1.96796e-22 0)
(-8.69753e-06 1.1449e-23 0)
(-8.69753e-06 1.35964e-22 0)
(-8.69753e-06 -7.10956e-22 0)
(-8.69753e-06 -8.04079e-22 0)
(-8.69753e-06 4.16425e-22 0)
(-8.69753e-06 -1.44027e-22 0)
(-9.13932e-06 2.70497e-19 0)
(-9.13934e-06 -5.71547e-20 0)
(-9.13866e-06 1.60217e-20 0)
(-9.13842e-06 -2.68294e-21 0)
(-9.13802e-06 -3.75613e-22 0)
(-9.13777e-06 -9.87086e-22 0)
(-9.13743e-06 3.85633e-22 0)
(-9.13721e-06 1.20521e-21 0)
(-9.13692e-06 1.62077e-21 0)
(-9.13673e-06 7.89643e-22 0)
(-9.13651e-06 4.84932e-22 0)
(-9.13634e-06 5.91548e-23 0)
(-9.13617e-06 -8.01666e-22 0)
(-9.13604e-06 -4.93758e-22 0)
(-9.13592e-06 5.99709e-22 0)
(-9.13584e-06 1.32446e-21 0)
(-9.13576e-06 3.80239e-22 0)
(-9.13572e-06 -2.38661e-22 0)
(-9.13569e-06 -2.05101e-22 0)
(-9.13568e-06 -8.39336e-22 0)
(-9.76543e-06 -1.21246e-18 0)
(-9.76543e-06 2.63894e-19 0)
(-9.76466e-06 -6.29658e-20 0)
(-9.76439e-06 1.28357e-20 0)
(-9.7639e-06 -3.69088e-21 0)
(-9.7636e-06 -6.95743e-24 0)
(-9.76323e-06 -7.47575e-22 0)
(-9.76292e-06 -1.81652e-22 0)
(-9.76266e-06 6.88384e-22 0)
(-9.76236e-06 5.28236e-22 0)
(-9.76218e-06 2.76723e-22 0)
(-9.76192e-06 3.30204e-22 0)
(-9.7618e-06 3.6149e-22 0)
(-9.76158e-06 6.35606e-22 0)
(-9.7615e-06 1.20831e-21 0)
(-9.76135e-06 1.33685e-21 0)
(-9.76131e-06 5.85379e-22 0)
(-9.76123e-06 -4.66527e-22 0)
(-9.76121e-06 -1.24129e-21 0)
(-9.7612e-06 -1.18583e-21 0)
(-1.03364e-05 8.26115e-19 0)
(-1.03364e-05 -1.77833e-19 0)
(-1.03356e-05 4.08624e-20 0)
(-1.03353e-05 -8.45097e-21 0)
(-1.03347e-05 3.92976e-21 0)
(-1.03344e-05 1.60469e-21 0)
(-1.03339e-05 5.33694e-22 0)
(-1.03337e-05 -2.68027e-22 0)
(-1.03333e-05 -3.52703e-23 0)
(-1.0333e-05 5.63669e-22 0)
(-1.03328e-05 2.12275e-24 0)
(-1.03325e-05 2.57471e-22 0)
(-1.03323e-05 1.11756e-21 0)
(-1.03322e-05 8.43379e-22 0)
(-1.0332e-05 -2.81836e-22 0)
(-1.03319e-05 -1.11489e-21 0)
(-1.03318e-05 -6.5469e-22 0)
(-1.03318e-05 -1.36818e-21 0)
(-1.03317e-05 -1.49593e-21 0)
(-1.03317e-05 -8.43997e-22 0)
(-1.07524e-05 -6.19622e-21 0)
(-1.07524e-05 -3.84875e-21 0)
(-1.07515e-05 1.43189e-21 0)
(-1.07511e-05 -6.76358e-22 0)
(-1.07505e-05 2.69497e-22 0)
(-1.07502e-05 4.51357e-22 0)
(-1.07497e-05 -2.92418e-22 0)
(-1.07494e-05 -3.89885e-22 0)
(-1.0749e-05 -3.5653e-22 0)
(-1.07487e-05 7.41809e-22 0)
(-1.07484e-05 3.3444e-22 0)
(-1.07482e-05 1.06986e-21 0)
(-1.07479e-05 1.04369e-21 0)
(-1.07478e-05 -1.43927e-22 0)
(-1.07476e-05 -1.18303e-21 0)
(-1.07475e-05 -1.87551e-21 0)
(-1.07474e-05 -9.95752e-22 0)
(-1.07473e-05 -7.32513e-22 0)
(-1.07473e-05 -8.7368e-22 0)
(-1.07473e-05 -1.20326e-22 0)
(-1.10191e-05 -7.51807e-19 0)
(-1.10191e-05 1.60047e-19 0)
(-1.10181e-05 -3.77598e-20 0)
(-1.10177e-05 6.97865e-21 0)
(-1.10171e-05 -2.56503e-21 0)
(-1.10167e-05 -8.81336e-23 0)
(-1.10162e-05 -2.20932e-22 0)
(-1.10159e-05 -6.25375e-23 0)
(-1.10155e-05 -9.89712e-22 0)
(-1.10152e-05 -8.78319e-22 0)
(-1.10149e-05 9.03422e-22 0)
(-1.10146e-05 2.94416e-21 0)
(-1.10144e-05 2.84045e-21 0)
(-1.10142e-05 3.81433e-22 0)
(-1.1014e-05 -7.75609e-22 0)
(-1.10139e-05 -1.18557e-21 0)
(-1.10138e-05 -1.53545e-21 0)
(-1.10137e-05 -7.28545e-22 0)
(-1.10137e-05 3.30057e-22 0)
(-1.10136e-05 2.48951e-22 0)
(-1.11796e-05 9.53247e-19 0)
(-1.11796e-05 -1.9225e-19 0)
(-1.11785e-05 4.68398e-20 0)
(-1.11782e-05 -8.78254e-21 0)
(-1.11776e-05 2.72531e-21 0)
(-1.11772e-05 -6.08982e-23 0)
(-1.11767e-05 2.65471e-22 0)
(-1.11763e-05 1.42471e-21 0)
(-1.11759e-05 2.41261e-21 0)
(-1.11755e-05 2.03083e-21 0)
(-1.11753e-05 2.27945e-21 0)
(-1.1175e-05 5.5515e-22 0)
(-1.11748e-05 -9.76761e-22 0)
(-1.11745e-05 -1.70633e-21 0)
(-1.11744e-05 -1.05812e-21 0)
(-1.11742e-05 5.26605e-22 0)
(-1.11741e-05 1.1705e-21 0)
(-1.11741e-05 1.20756e-21 0)
(-1.1174e-05 4.40444e-22 0)
(-1.1174e-05 -5.03649e-23 0)
(-1.1276e-05 -2.97309e-19 0)
(-1.1276e-05 6.19934e-20 0)
(-1.1275e-05 -1.22149e-20 0)
(-1.12746e-05 4.27493e-21 0)
(-1.1274e-05 9.82197e-22 0)
(-1.12736e-05 8.83757e-22 0)
(-1.1273e-05 7.73219e-22 0)
(-1.12727e-05 1.25279e-21 0)
(-1.12723e-05 1.86607e-21 0)
(-1.12719e-05 1.33554e-21 0)
(-1.12716e-05 -3.67157e-22 0)
(-1.12714e-05 -2.8963e-21 0)
(-1.12711e-05 -2.46064e-21 0)
(-1.12709e-05 -9.74143e-23 0)
(-1.12707e-05 2.99461e-22 0)
(-1.12706e-05 6.10377e-22 0)
(-1.12705e-05 5.27654e-22 0)
(-1.12704e-05 2.88274e-22 0)
(-1.12704e-05 5.48886e-22 0)
(-1.12703e-05 8.0345e-23 0)
(-1.13379e-05 -5.04842e-19 0)
(-1.13379e-05 1.03731e-19 0)
(-1.13368e-05 -2.3648e-20 0)
(-1.13365e-05 6.44493e-21 0)
(-1.13358e-05 -3.15182e-22 0)
(-1.13354e-05 6.29261e-22 0)
(-1.13349e-05 8.46175e-22 0)
(-1.13345e-05 2.89921e-22 0)
(-1.13341e-05 -6.47192e-22 0)
(-1.13337e-05 -7.26896e-22 0)
(-1.13334e-05 -1.75189e-21 0)
(-1.13331e-05 -1.16435e-21 0)
(-1.13329e-05 2.45953e-22 0)
(-1.13327e-05 1.48251e-21 0)
(-1.13325e-05 1.09885e-21 0)
(-1.13324e-05 6.12669e-22 0)
(-1.13323e-05 -4.57166e-23 0)
(-1.13322e-05 5.63716e-23 0)
(-1.13322e-05 8.57271e-22 0)
(-1.13321e-05 2.2354e-22 0)
(-1.1383e-05 8.05884e-19 0)
(-1.1383e-05 -1.65618e-19 0)
(-1.13819e-05 3.78926e-20 0)
(-1.13815e-05 -6.61169e-21 0)
(-1.13809e-05 3.10925e-21 0)
(-1.13805e-05 2.26437e-21 0)
(-1.13799e-05 2.20777e-21 0)
(-1.13796e-05 1.69025e-22 0)
(-1.13791e-05 -7.26019e-22 0)
(-1.13788e-05 2.67191e-22 0)
(-1.13785e-05 -8.0505e-23 0)
(-1.13782e-05 -1.17901e-21 0)
(-1.1378e-05 -1.54536e-21 0)
(-1.13777e-05 -1.53694e-21 0)
(-1.13776e-05 3.19012e-23 0)
(-1.13774e-05 1.22489e-21 0)
(-1.13773e-05 1.31329e-21 0)
(-1.13772e-05 2.81954e-22 0)
(-1.13772e-05 -4.68871e-22 0)
(-1.13772e-05 -1.42653e-22 0)
(-1.14212e-05 -7.46606e-19 0)
(-1.14212e-05 1.57006e-19 0)
(-1.14202e-05 -3.50341e-20 0)
(-1.14198e-05 8.89409e-21 0)
(-1.14191e-05 -2.36567e-22 0)
(-1.14187e-05 8.92763e-22 0)
(-1.14182e-05 4.35462e-22 0)
(-1.14178e-05 2.96982e-22 0)
(-1.14174e-05 6.36361e-22 0)
(-1.1417e-05 1.13502e-21 0)
(-1.14167e-05 1.23275e-21 0)
(-1.14164e-05 -7.01152e-22 0)
(-1.14162e-05 -8.75741e-22 0)
(-1.14159e-05 7.05339e-22 0)
(-1.14158e-05 1.94009e-21 0)
(-1.14156e-05 7.5584e-22 0)
(-1.14155e-05 -2.81334e-22 0)
(-1.14154e-05 -5.42383e-22 0)
(-1.14154e-05 -2.67859e-22 0)
(-1.14154e-05 -1.05833e-23 0)
(-1.14581e-05 4.01707e-19 0)
(-1.14581e-05 -8.31077e-20 0)
(-1.1457e-05 2.17073e-20 0)
(-1.14566e-05 -3.31426e-21 0)
(-1.1456e-05 7.96544e-22 0)
(-1.14555e-05 -7.14581e-22 0)
(-1.1455e-05 4.10615e-22 0)
(-1.14546e-05 4.28738e-22 0)
(-1.14542e-05 3.58583e-22 0)
(-1.14538e-05 -1.79787e-22 0)
(-1.14536e-05 -4.78703e-22 0)
(-1.14532e-05 -2.09477e-22 0)
(-1.1453e-05 -1.73794e-22 0)
(-1.14527e-05 1.01095e-21 0)
(-1.14526e-05 1.58022e-21 0)
(-1.14524e-05 3.51188e-22 0)
(-1.14524e-05 -8.78334e-23 0)
(-1.14523e-05 9.24862e-22 0)
(-1.14522e-05 1.02258e-21 0)
(-1.14522e-05 7.1931e-22 0)
(-1.14966e-05 1.63995e-19 0)
(-1.14966e-05 -3.06511e-20 0)
(-1.14956e-05 9.05773e-21 0)
(-1.14952e-05 -2.40611e-21 0)
(-1.14945e-05 -2.4677e-22 0)
(-1.14941e-05 1.09764e-21 0)
(-1.14936e-05 1.75395e-21 0)
(-1.14932e-05 1.38691e-21 0)
(-1.14927e-05 -5.64083e-22 0)
(-1.14924e-05 -2.9965e-21 0)
(-1.14921e-05 -3.27979e-21 0)
(-1.14918e-05 -1.31941e-21 0)
(-1.14915e-05 1.47055e-22 0)
(-1.14913e-05 -2.34927e-22 0)
(-1.14911e-05 -1.48801e-21 0)
(-1.1491e-05 -8.05163e-22 0)
(-1.14909e-05 -4.74508e-22 0)
(-1.14908e-05 -6.45981e-22 0)
(-1.14908e-05 -1.3382e-21 0)
(-1.14907e-05 -5.81847e-22 0)
(-1.15389e-05 -6.9267e-19 0)
(-1.15389e-05 1.46751e-19 0)
(-1.15379e-05 -3.33524e-20 0)
(-1.15375e-05 7.20693e-21 0)
(-1.15368e-05 -1.72015e-21 0)
(-1.15364e-05 -2.25745e-22 0)
(-1.15358e-05 -1.89571e-21 0)
(-1.15354e-05 -1.09499e-21 0)
(-1.1535e-05 -6.7011e-22 0)
(-1.15346e-05 -1.24312e-21 0)
(-1.15343e-05 9.12392e-24 0)
(-1.1534e-05 2.84749e-22 0)
(-1.15338e-05 -4.38688e-22 0)
(-1.15335e-05 -8.16507e-22 0)
(-1.15334e-05 -6.30266e-22 0)
(-1.15332e-05 4.48509e-22 0)
(-1.15331e-05 1.1243e-22 0)
(-1.1533e-05 -1.17455e-21 0)
(-1.1533e-05 -2.36523e-21 0)
(-1.1533e-05 -1.6915e-21 0)
(-1.15862e-05 8.97112e-19 0)
(-1.15862e-05 -1.92491e-19 0)
(-1.15851e-05 4.47805e-20 0)
(-1.15847e-05 -8.83397e-21 0)
(-1.1584e-05 3.0491e-21 0)
(-1.15836e-05 8.85822e-22 0)
(-1.15831e-05 -2.39937e-22 0)
(-1.15827e-05 -2.38931e-21 0)
(-1.15823e-05 -1.9164e-21 0)
(-1.15819e-05 -6.86602e-22 0)
(-1.15816e-05 -3.37324e-23 0)
(-1.15812e-05 -4.20151e-22 0)
(-1.15811e-05 -8.45105e-22 0)
(-1.15807e-05 -1.00488e-21 0)
(-1.15806e-05 -1.22353e-22 0)
(-1.15804e-05 -3.91881e-22 0)
(-1.15804e-05 4.21781e-24 0)
(-1.15803e-05 -2.04234e-22 0)
(-1.15802e-05 -3.25482e-22 0)
(-1.15802e-05 -6.85867e-22 0)
(-1.16389e-05 -6.23833e-19 0)
(-1.16389e-05 1.33475e-19 0)
(-1.16378e-05 -3.03894e-20 0)
(-1.16374e-05 6.10088e-21 0)
(-1.16367e-05 -2.89158e-21 0)
(-1.16363e-05 -1.20272e-21 0)
(-1.16357e-05 -1.29081e-21 0)
(-1.16353e-05 -1.82054e-21 0)
(-1.16349e-05 -1.38677e-21 0)
(-1.16345e-05 -8.99162e-22 0)
(-1.16342e-05 -1.93807e-21 0)
(-1.16339e-05 -5.72815e-22 0)
(-1.16336e-05 1.2018e-21 0)
(-1.16334e-05 7.00493e-22 0)
(-1.16332e-05 -5.33563e-23 0)
(-1.16331e-05 -3.04789e-22 0)
(-1.1633e-05 -3.8335e-22 0)
(-1.16329e-05 -6.38333e-23 0)
(-1.16328e-05 4.17722e-22 0)
(-1.16328e-05 -2.35415e-22 0)
(-1.16954e-05 -1.39517e-19 0)
(-1.16954e-05 3.54705e-20 0)
(-1.16944e-05 -7.60299e-21 0)
(-1.16939e-05 1.38795e-21 0)
(-1.16932e-05 -3.07138e-21 0)
(-1.16927e-05 -3.89712e-21 0)
(-1.16922e-05 -3.31002e-21 0)
(-1.16918e-05 -1.06977e-21 0)
(-1.16914e-05 -2.24927e-22 0)
(-1.1691e-05 -5.97359e-22 0)
(-1.16907e-05 -1.32056e-21 0)
(-1.16904e-05 3.58143e-22 0)
(-1.16901e-05 1.25527e-21 0)
(-1.16899e-05 4.6398e-22 0)
(-1.16897e-05 4.77891e-22 0)
(-1.16895e-05 6.69111e-22 0)
(-1.16894e-05 4.09845e-23 0)
(-1.16893e-05 3.26131e-22 0)
(-1.16893e-05 2.03071e-22 0)
(-1.16893e-05 -3.64134e-22 0)
(-1.1751e-05 9.67832e-19 0)
(-1.1751e-05 -2.04416e-19 0)
(-1.17498e-05 4.72844e-20 0)
(-1.17495e-05 -1.04988e-20 0)
(-1.17487e-05 2.1512e-21 0)
(-1.17483e-05 -1.73407e-21 0)
(-1.17477e-05 -1.8096e-21 0)
(-1.17474e-05 -1.10155e-21 0)
(-1.17469e-05 -4.13198e-22 0)
(-1.17465e-05 -5.65068e-22 0)
(-1.17462e-05 3.22666e-22 0)
(-1.17459e-05 8.7399e-22 0)
(-1.17456e-05 6.99753e-22 0)
(-1.17454e-05 1.13499e-21 0)
(-1.17452e-05 8.9341e-22 0)
(-1.1745e-05 -3.24824e-22 0)
(-1.17449e-05 -1.15783e-21 0)
(-1.17449e-05 -1.8366e-22 0)
(-1.17448e-05 1.56692e-22 0)
(-1.17448e-05 2.27279e-22 0)
(-1.17969e-05 -4.17241e-19 0)
(-1.17969e-05 7.83928e-20 0)
(-1.17958e-05 -1.96758e-20 0)
(-1.17954e-05 2.48821e-21 0)
(-1.17948e-05 -1.36662e-21 0)
(-1.17943e-05 -1.89885e-21 0)
(-1.17938e-05 -3.005e-21 0)
(-1.17934e-05 -3.02244e-21 0)
(-1.1793e-05 -1.78107e-21 0)
(-1.17926e-05 -7.8864e-22 0)
(-1.17923e-05 1.21261e-21 0)
(-1.17919e-05 6.56835e-22 0)
(-1.17917e-05 -8.56806e-22 0)
(-1.17914e-05 -4.82465e-22 0)
(-1.17913e-05 -2.737e-22 0)
(-1.17911e-05 -8.02255e-22 0)
(-1.1791e-05 -7.23449e-22 0)
(-1.17909e-05 -4.54754e-22 0)
(-1.17909e-05 -4.04657e-22 0)
(-1.17909e-05 2.08223e-22 0)
(-1.18175e-05 -9.64748e-19 0)
(-1.18175e-05 2.05807e-19 0)
(-1.18175e-05 -4.88098e-20 0)
(-1.18175e-05 9.70612e-21 0)
(-1.18175e-05 -3.08402e-21 0)
(-1.18174e-05 -4.54571e-22 0)
(-1.18174e-05 -1.19304e-21 0)
(-1.18174e-05 -7.66641e-22 0)
(-1.18174e-05 -5.28499e-22 0)
(-1.18174e-05 -3.69035e-22 0)
(-1.18174e-05 4.23845e-22 0)
(-1.18174e-05 3.90272e-24 0)
(-1.18174e-05 -1.0642e-21 0)
(-1.18174e-05 -1.55608e-21 0)
(-1.18174e-05 -1.02199e-21 0)
(-1.18174e-05 -8.87553e-22 0)
(-1.18174e-05 -1.0831e-22 0)
(-1.18174e-05 -1.32445e-22 0)
(-1.18174e-05 -3.95449e-22 0)
(-1.18174e-05 -2.00836e-22 0)
)
;

boundaryField
{
    movingWall
    {
        type            calculated;
        value           nonuniform List<vector> 
20
(
(-1.18175e-05 -0 -0)
(-1.18175e-05 -0 -0)
(-1.18175e-05 -0 -0)
(-1.18175e-05 -0 -0)
(-1.18175e-05 -0 -0)
(-1.18174e-05 -0 -0)
(-1.18174e-05 -0 -0)
(-1.18174e-05 -0 -0)
(-1.18174e-05 -0 -0)
(-1.18174e-05 -0 -0)
(-1.18174e-05 -0 -0)
(-1.18174e-05 -0 -0)
(-1.18174e-05 -0 -0)
(-1.18174e-05 -0 -0)
(-1.18174e-05 -0 -0)
(-1.18174e-05 -0 -0)
(-1.18174e-05 -0 -0)
(-1.18174e-05 -0 -0)
(-1.18174e-05 -0 -0)
(-1.18174e-05 -0 -0)
)
;
    }
    fixedWalls
    {
        type            calculated;
        value           nonuniform List<vector> 
60
(
(-8.6976e-06 -0 -0)
(-9.13932e-06 -0 -0)
(-9.76543e-06 -0 -0)
(-1.03364e-05 -0 -0)
(-1.07524e-05 -0 -0)
(-1.10191e-05 -0 -0)
(-1.11796e-05 -0 -0)
(-1.1276e-05 -0 -0)
(-1.13379e-05 -0 -0)
(-1.1383e-05 -0 -0)
(-1.14212e-05 -0 -0)
(-1.14581e-05 -0 -0)
(-1.14966e-05 -0 -0)
(-1.15389e-05 -0 -0)
(-1.15862e-05 -0 -0)
(-1.16389e-05 -0 -0)
(-1.16954e-05 -0 -0)
(-1.1751e-05 -0 -0)
(-1.17969e-05 -0 -0)
(-1.18175e-05 -0 -0)
(-8.69753e-06 -0 -0)
(-9.13568e-06 -0 -0)
(-9.7612e-06 -0 -0)
(-1.03317e-05 -0 -0)
(-1.07473e-05 -0 -0)
(-1.10136e-05 -0 -0)
(-1.1174e-05 -0 -0)
(-1.12703e-05 -0 -0)
(-1.13321e-05 -0 -0)
(-1.13772e-05 -0 -0)
(-1.14154e-05 -0 -0)
(-1.14522e-05 -0 -0)
(-1.14907e-05 -0 -0)
(-1.1533e-05 -0 -0)
(-1.15802e-05 -0 -0)
(-1.16328e-05 -0 -0)
(-1.16893e-05 -0 -0)
(-1.17448e-05 -0 -0)
(-1.17909e-05 -0 -0)
(-1.18174e-05 -0 -0)
(-8.6976e-06 -0 -0)
(-8.69759e-06 -0 -0)
(-8.69758e-06 -0 -0)
(-8.69757e-06 -0 -0)
(-8.69757e-06 -0 -0)
(-8.69756e-06 -0 -0)
(-8.69755e-06 -0 -0)
(-8.69755e-06 -0 -0)
(-8.69754e-06 -0 -0)
(-8.69754e-06 -0 -0)
(-8.69754e-06 -0 -0)
(-8.69754e-06 -0 -0)
(-8.69753e-06 -0 -0)
(-8.69753e-06 -0 -0)
(-8.69753e-06 -0 -0)
(-8.69753e-06 -0 -0)
(-8.69753e-06 -0 -0)
(-8.69753e-06 -0 -0)
(-8.69753e-06 -0 -0)
(-8.69753e-06 -0 -0)
)
;
    }
    frontAndBack
    {
        type            empty;
    }
}


// ************************************************************************* //
