/*--------------------------------*- C++ -*----------------------------------*\
| =========                 |                                                 |
| \\      /  F ield         | OpenFOAM: The Open Source CFD Toolbox           |
|  \\    /   O peration     | Version:  2506                                  |
|   \\  /    A nd           | Website:  www.openfoam.com                      |
|    \\/     M anipulation  |                                                 |
\*---------------------------------------------------------------------------*/
FoamFile
{
    version     2.0;
    format      ascii;
    arch        "LSB;label=32;scalar=64";
    class       volTensorField;
    location    "6";
    object      kU2;
}
// * * * * * * * * * * * * * * * * * * * * * * * * * * * * * * * * * * * * * //

dimensions      [0 4 -4 0 0 0 0];

internalField   nonuniform List<tensor> 
400
(
(8.6976e-06 -9.8215e-19 -0 -9.86912e-19 1.11444e-31 0 -0 0 0)
(8.69759e-06 2.07386e-19 -0 2.08043e-19 4.96058e-33 -0 -0 -0 0)
(8.69758e-06 -5.00305e-20 -0 -5.02177e-20 2.88864e-34 0 -0 0 0)
(8.69757e-06 9.46113e-21 -0 9.33158e-21 1.01508e-35 -0 -0 -0 0)
(8.69757e-06 -2.54997e-21 -0 -3.06254e-21 8.97882e-37 0 -0 0 0)
(8.69756e-06 -3.8229e-22 -0 -8.14142e-22 3.57846e-38 0 -0 0 0)
(8.69755e-06 -1.57994e-21 -0 -1.82804e-21 3.3207e-37 0 -0 0 0)
(8.69755e-06 -1.46409e-21 -0 -1.38282e-21 2.32775e-37 0 -0 0 0)
(8.69754e-06 -1.29944e-21 -0 -7.92276e-22 1.18368e-37 0 -0 0 0)
(8.69754e-06 -5.77072e-22 -0 -1.94833e-22 1.29269e-38 0 -0 0 0)
(8.69754e-06 -1.44754e-22 -0 -3.13293e-22 5.21419e-39 0 -0 0 0)
(8.69754e-06 1.772e-22 -0 -1.57078e-22 -3.20024e-39 0 -0 -0 0)
(8.69753e-06 5.41964e-22 -0 1.9094e-22 1.18979e-38 -0 -0 -0 0)
(8.69753e-06 4.25444e-22 -0 1.96796e-22 9.62639e-39 -0 -0 -0 0)
(8.69753e-06 -1.09048e-22 -0 -1.1449e-23 1.43547e-40 0 -0 0 0)
(8.69753e-06 -5.45161e-22 -0 -1.35964e-22 8.5222e-39 0 -0 0 0)
(8.69753e-06 -7.63892e-23 -0 7.10956e-22 -6.24424e-39 -0 -0 0 0)
(8.69753e-06 8.14239e-22 -0 8.04079e-22 7.52757e-38 -0 -0 -0 0)
(8.69753e-06 4.03492e-22 -0 -4.16425e-22 -1.93186e-38 0 -0 -0 0)
(8.69753e-06 -4.24884e-23 -0 1.44027e-22 -7.03586e-40 -0 -0 0 0)
(9.13932e-06 -2.70178e-19 -0 -2.70497e-19 7.99648e-33 0 -0 0 0)
(9.13934e-06 5.83855e-20 -0 5.71547e-20 3.65126e-34 -0 -0 -0 0)
(9.13866e-06 -1.6189e-20 -0 -1.60217e-20 2.83822e-35 0 -0 0 0)
(9.13842e-06 2.11589e-21 -0 2.68294e-21 6.21203e-37 -0 -0 -0 0)
(9.13802e-06 -2.08795e-22 -0 3.75613e-22 -8.58241e-39 -0 -0 0 0)
(9.13777e-06 1.11815e-21 -0 9.87086e-22 1.20785e-37 -0 -0 -0 0)
(9.13743e-06 1.64333e-22 -0 -3.85633e-22 -6.93544e-39 0 -0 -0 0)
(9.13721e-06 -5.38706e-22 -0 -1.20521e-21 7.10559e-38 0 -0 0 0)
(9.13692e-06 -1.32408e-21 -0 -1.62077e-21 2.34875e-37 0 -0 0 0)
(9.13673e-06 -1.05412e-21 -0 -7.89643e-22 9.11021e-38 0 -0 0 0)
(9.13651e-06 -5.66369e-22 -0 -4.84932e-22 3.00607e-38 0 -0 0 0)
(9.13634e-06 5.21999e-24 -0 -5.91548e-23 -3.37977e-41 0 -0 -0 0)
(9.13617e-06 1.46032e-21 -0 8.01666e-22 1.28138e-37 -0 -0 -0 0)
(9.13604e-06 1.05938e-21 -0 4.93758e-22 5.72541e-38 -0 -0 -0 0)
(9.13592e-06 -5.85084e-22 -0 -5.99709e-22 3.84066e-38 0 -0 0 0)
(9.13584e-06 -1.51623e-21 -0 -1.32446e-21 2.19814e-37 0 -0 0 0)
(9.13576e-06 -7.87408e-22 -0 -3.80239e-22 3.27727e-38 0 -0 0 0)
(9.13572e-06 1.81569e-22 -0 2.38661e-22 4.7433e-39 -0 -0 -0 0)
(9.13569e-06 8.75916e-22 -0 2.05101e-22 1.96648e-38 -0 -0 -0 0)
(9.13568e-06 9.1751e-22 -0 8.39336e-22 8.42958e-38 -0 -0 -0 0)
(9.76543e-06 1.21354e-18 -0 1.21246e-18 1.50671e-31 -0 -0 -0 0)
(9.76543e-06 -2.63807e-19 -0 -2.63894e-19 7.12894e-33 0 -0 0 0)
(9.76466e-06 6.38171e-20 -0 6.29658e-20 4.11514e-34 -0 -0 -0 0)
(9.76439e-06 -1.25999e-20 -0 -1.28357e-20 1.65631e-35 0 -0 0 0)
(9.7639e-06 3.12736e-21 -0 3.69088e-21 1.18218e-36 -0 -0 -0 0)
(9.7636e-06 -2.05118e-22 -0 6.95743e-24 -1.46164e-40 -0 -0 0 0)
(9.76323e-06 5.95061e-22 -0 7.47575e-22 4.55641e-38 -0 -0 -0 0)
(9.76292e-06 5.97915e-22 -0 1.81652e-22 1.1125e-38 -0 -0 -0 0)
(9.76266e-06 8.90559e-23 -0 -6.88384e-22 -6.2795e-39 0 -0 -0 0)
(9.76236e-06 1.12464e-22 -0 -5.28236e-22 -6.08534e-39 0 -0 -0 0)
(9.76218e-06 -1.51259e-22 -0 -2.76723e-22 4.28764e-39 0 -0 0 0)
(9.76192e-06 -8.71047e-24 -0 -3.30204e-22 2.94638e-40 0 -0 0 0)
(9.7618e-06 8.89008e-23 -0 -3.6149e-22 -3.29209e-39 0 -0 -0 0)
(9.76158e-06 -6.61168e-22 -0 -6.35606e-22 4.30507e-38 0 -0 0 0)
(9.7615e-06 -1.74437e-21 -0 -1.20831e-21 2.15924e-37 0 -0 0 0)
(9.76135e-06 -1.27442e-21 -0 -1.33685e-21 1.74535e-37 0 -0 0 0)
(9.76131e-06 2.04823e-22 -0 -5.85379e-22 -1.22831e-38 0 -0 -0 0)
(9.76123e-06 7.84669e-22 -0 4.66527e-22 3.75023e-38 -0 -0 -0 0)
(9.76121e-06 1.29352e-21 -0 1.24129e-21 1.64492e-37 -0 -0 -0 0)
(9.7612e-06 1.4638e-21 -0 1.18583e-21 1.77828e-37 -0 -0 -0 0)
(1.03364e-05 -8.21369e-19 -0 -8.26115e-19 6.56459e-32 0 -0 0 0)
(1.03364e-05 1.77618e-19 -0 1.77833e-19 3.05583e-33 -0 -0 -0 0)
(1.03356e-05 -3.94896e-20 -0 -4.08624e-20 1.56124e-34 0 -0 0 0)
(1.03353e-05 1.02043e-20 -0 8.45097e-21 8.34388e-36 -0 -0 -0 0)
(1.03347e-05 -3.06168e-21 -0 -3.92976e-21 1.1642e-36 0 -0 0 0)
(1.03344e-05 -1.73327e-21 -0 -1.60469e-21 2.69137e-37 0 -0 0 0)
(1.03339e-05 -1.20208e-21 -0 -5.33694e-22 6.20812e-38 0 -0 0 0)
(1.03337e-05 2.87857e-23 -0 2.68027e-22 7.46623e-40 -0 -0 -0 0)
(1.03333e-05 6.14449e-22 -0 3.52703e-23 2.09728e-39 -0 -0 -0 0)
(1.0333e-05 1.92069e-22 -0 -5.63669e-22 -1.04774e-38 0 -0 -0 0)
(1.03328e-05 -1.69921e-22 -0 -2.12275e-24 3.49083e-41 0 -0 0 0)
(1.03325e-05 -1.07488e-22 -0 -2.57471e-22 2.67844e-39 0 -0 0 0)
(1.03323e-05 -1.10819e-21 -0 -1.11756e-21 1.19864e-37 0 -0 0 0)
(1.03322e-05 -1.28833e-21 -0 -8.43379e-22 1.05162e-37 0 -0 0 0)
(1.0332e-05 -1.96211e-22 -0 2.81836e-22 -5.35224e-39 -0 -0 0 0)
(1.03319e-05 1.12828e-21 -0 1.11489e-21 1.2175e-37 -0 -0 -0 0)
(1.03318e-05 1.40288e-21 -0 6.5469e-22 8.88953e-38 -0 -0 -0 0)
(1.03318e-05 1.76395e-21 -0 1.36818e-21 2.33591e-37 -0 -0 -0 0)
(1.03317e-05 1.82797e-21 -0 1.49593e-21 2.64671e-37 -0 -0 -0 0)
(1.03317e-05 1.08016e-21 -0 8.43997e-22 8.82386e-38 -0 -0 -0 0)
(1.07524e-05 4.27449e-21 -0 6.19622e-21 2.46323e-36 -0 -0 -0 0)
(1.07524e-05 6.18372e-21 -0 3.84875e-21 2.21342e-36 -0 -0 -0 0)
(1.07515e-05 -1.09903e-21 -0 -1.43189e-21 1.46369e-37 0 -0 0 0)
(1.07511e-05 8.74972e-22 -0 6.76358e-22 5.50448e-38 -0 -0 -0 0)
(1.07505e-05 -4.98719e-24 -0 -2.69497e-22 1.2502e-40 0 -0 0 0)
(1.07502e-05 -3.81677e-22 -0 -4.51357e-22 1.60251e-38 0 -0 0 0)
(1.07497e-05 1.62667e-22 -0 2.92418e-22 4.42496e-39 -0 -0 -0 0)
(1.07494e-05 5.51243e-22 -0 3.89885e-22 1.99938e-38 -0 -0 -0 0)
(1.0749e-05 9.05048e-22 -0 3.5653e-22 3.00193e-38 -0 -0 -0 0)
(1.07487e-05 -4.38038e-22 -0 -7.41809e-22 3.02307e-38 0 -0 0 0)
(1.07484e-05 -3.48183e-22 -0 -3.3444e-22 1.08338e-38 0 -0 0 0)
(1.07482e-05 -4.91233e-22 -0 -1.06986e-21 4.8897e-38 0 -0 0 0)
(1.07479e-05 -9.72857e-22 -0 -1.04369e-21 9.447e-38 0 -0 0 0)
(1.07478e-05 -5.79979e-22 -0 1.43927e-22 -7.76673e-39 -0 -0 0 0)
(1.07476e-05 9.3113e-22 -0 1.18303e-21 1.02493e-37 -0 -0 -0 0)
(1.07475e-05 1.90321e-21 -0 1.87551e-21 3.32123e-37 -0 -0 -0 0)
(1.07474e-05 1.63561e-21 -0 9.95752e-22 1.5154e-37 -0 -0 -0 0)
(1.07473e-05 6.63479e-22 -0 7.32513e-22 4.52213e-38 -0 -0 -0 0)
(1.07473e-05 1.05204e-21 -0 8.7368e-22 8.5524e-38 -0 -0 -0 0)
(1.07473e-05 8.38163e-22 -0 1.20326e-22 9.38405e-39 -0 -0 -0 0)
(1.10191e-05 7.49545e-19 -0 7.51807e-19 5.11399e-32 -0 -0 -0 0)
(1.10191e-05 -1.58898e-19 -0 -1.60047e-19 2.30793e-33 0 -0 0 0)
(1.10181e-05 3.75047e-20 -0 3.77598e-20 1.28532e-34 -0 -0 -0 0)
(1.10177e-05 -7.52734e-21 -0 -6.97865e-21 4.76784e-36 0 -0 0 0)
(1.10171e-05 2.76322e-21 -0 2.56503e-21 6.4334e-37 -0 -0 -0 0)
(1.10167e-05 6.00815e-22 -0 8.81336e-23 4.80652e-39 -0 -0 -0 0)
(1.10162e-05 5.85562e-22 -0 2.20932e-22 1.17435e-38 -0 -0 -0 0)
(1.10159e-05 5.92379e-22 -0 6.25375e-23 3.36296e-39 -0 -0 -0 0)
(1.10155e-05 7.2862e-22 -0 9.89712e-22 6.54647e-38 -0 -0 -0 0)
(1.10152e-05 4.47094e-22 -0 8.78319e-22 3.565e-38 -0 -0 -0 0)
(1.10149e-05 3.00657e-22 -0 -9.03422e-22 -2.46594e-38 0 -0 -0 0)
(1.10146e-05 -6.86955e-22 -0 -2.94416e-21 1.83621e-37 0 -0 0 0)
(1.10144e-05 -2.42904e-21 -0 -2.84045e-21 6.26417e-37 0 -0 0 0)
(1.10142e-05 -1.91635e-21 -0 -3.81433e-22 6.63655e-38 0 -0 0 0)
(1.1014e-05 -3.60385e-22 -0 7.75609e-22 -2.53784e-38 -0 -0 0 0)
(1.10139e-05 1.18342e-21 -0 1.18557e-21 1.27387e-37 -0 -0 -0 0)
(1.10138e-05 1.61078e-21 -0 1.53545e-21 2.24562e-37 -0 -0 -0 0)
(1.10137e-05 9.31448e-22 -0 7.28545e-22 6.16143e-38 -0 -0 -0 0)
(1.10137e-05 2.45002e-22 -0 -3.30057e-22 -7.3422e-39 0 -0 -0 0)
(1.10136e-05 1.93712e-23 -0 -2.48951e-22 -4.37864e-40 0 -0 -0 0)
(1.11796e-05 -9.41788e-19 -0 -9.53247e-19 8.03032e-32 0 -0 0 0)
(1.11796e-05 1.90753e-19 -0 1.9225e-19 3.28029e-33 -0 -0 -0 0)
(1.11785e-05 -4.60137e-20 -0 -4.68398e-20 1.92804e-34 0 -0 0 0)
(1.11782e-05 9.32615e-21 -0 8.78254e-21 7.3274e-36 -0 -0 -0 0)
(1.11776e-05 -1.81996e-21 -0 -2.72531e-21 4.43743e-37 0 -0 0 0)
(1.11772e-05 -1.3007e-22 -0 6.08982e-23 -7.08681e-40 -0 -0 0 0)
(1.11767e-05 -2.82047e-22 -0 -2.65471e-22 6.69923e-39 0 -0 0 0)
(1.11763e-05 -4.89498e-22 -0 -1.42471e-21 6.23991e-38 0 -0 0 0)
(1.11759e-05 -1.03034e-21 -0 -2.41261e-21 2.22425e-37 0 -0 0 0)
(1.11755e-05 -1.81033e-21 -0 -2.03083e-21 3.28975e-37 0 -0 0 0)
(1.11753e-05 -2.41114e-21 -0 -2.27945e-21 4.91806e-37 0 -0 0 0)
(1.1175e-05 -9.94549e-22 -0 -5.5515e-22 4.94072e-38 0 -0 0 0)
(1.11748e-05 2.28239e-22 -0 9.76761e-22 1.99498e-38 -0 -0 -0 0)
(1.11745e-05 1.18031e-21 -0 1.70633e-21 1.80232e-37 -0 -0 -0 0)
(1.11744e-05 1.47367e-21 -0 1.05812e-21 1.39545e-37 -0 -0 -0 0)
(1.11742e-05 8.42332e-22 -0 -5.26605e-22 -3.96964e-38 0 -0 -0 0)
(1.11741e-05 -1.26322e-21 -0 -1.1705e-21 1.32323e-37 0 -0 0 0)
(1.11741e-05 -1.05535e-21 -0 -1.20756e-21 1.14049e-37 0 -0 0 0)
(1.1174e-05 -1.68531e-22 -0 -4.40444e-22 6.64294e-39 0 -0 0 0)
(1.1174e-05 -4.15945e-22 -0 5.03649e-23 -1.8748e-39 -0 -0 0 0)
(1.1276e-05 2.94327e-19 -0 2.97309e-19 7.76036e-33 -0 -0 -0 0)
(1.1276e-05 -6.00342e-20 -0 -6.19934e-20 3.30058e-34 0 -0 0 0)
(1.1275e-05 1.27853e-20 -0 1.22149e-20 1.38511e-35 -0 -0 -0 0)
(1.12746e-05 -3.22287e-21 -0 -4.27493e-21 1.222e-36 0 -0 0 0)
(1.1274e-05 -1.6214e-23 -0 -9.82197e-22 1.41257e-39 0 -0 0 0)
(1.12736e-05 -3.63713e-22 -0 -8.83757e-22 2.85122e-38 0 -0 0 0)
(1.1273e-05 -2.46065e-22 -0 -7.73219e-22 1.68776e-38 0 -0 0 0)
(1.12727e-05 -6.84735e-22 -0 -1.25279e-21 7.60981e-38 0 -0 0 0)
(1.12723e-05 -1.13273e-21 -0 -1.86607e-21 1.87518e-37 0 -0 0 0)
(1.12719e-05 -1.1614e-21 -0 -1.33554e-21 1.37606e-37 0 -0 0 0)
(1.12716e-05 -1.17801e-22 -0 3.67157e-22 -3.83722e-39 -0 -0 0 0)
(1.12714e-05 2.22344e-21 -0 2.8963e-21 5.71338e-37 -0 -0 -0 0)
(1.12711e-05 3.06607e-21 -0 2.46064e-21 6.69367e-37 -0 -0 -0 0)
(1.12709e-05 1.68816e-21 -0 9.74143e-23 1.45907e-38 -0 -0 -0 0)
(1.12707e-05 1.27325e-22 -0 -2.99461e-22 -3.38301e-39 0 -0 -0 0)
(1.12706e-05 -5.65121e-22 -0 -6.10377e-22 3.06051e-38 0 -0 0 0)
(1.12705e-05 -8.87098e-22 -0 -5.27654e-22 4.15316e-38 0 -0 0 0)
(1.12704e-05 -3.44676e-22 -0 -2.88274e-22 8.81612e-39 0 -0 0 0)
(1.12704e-05 -2.1019e-23 -0 -5.48886e-22 1.02366e-39 0 -0 0 0)
(1.12703e-05 -2.68259e-22 -0 -8.0345e-23 1.91239e-39 0 -0 0 0)
(1.13379e-05 5.01024e-19 -0 5.04842e-19 2.23091e-32 -0 -0 -0 0)
(1.13379e-05 -1.01584e-19 -0 -1.03731e-19 9.29396e-34 0 -0 0 0)
(1.13368e-05 2.40981e-20 -0 2.3648e-20 5.02674e-35 -0 -0 -0 0)
(1.13365e-05 -5.67351e-21 -0 -6.44493e-21 3.22546e-36 0 -0 0 0)
(1.13358e-05 6.3222e-22 -0 3.15182e-22 1.75783e-38 -0 -0 -0 0)
(1.13354e-05 1.23512e-21 -0 -6.29261e-22 -6.85648e-38 0 -0 -0 0)
(1.13349e-05 1.47699e-21 -0 -8.46175e-22 -1.10261e-37 0 -0 -0 0)
(1.13345e-05 5.80276e-22 -0 -2.89921e-22 -1.48427e-38 0 -0 -0 0)
(1.13341e-05 -2.35204e-22 -0 6.47192e-22 -1.34305e-38 -0 -0 0 0)
(1.13337e-05 -2.70527e-22 -0 7.26896e-22 -1.73504e-38 -0 -0 0 0)
(1.13334e-05 1.72497e-21 -0 1.75189e-21 2.66641e-37 -0 -0 -0 0)
(1.13331e-05 1.94033e-21 -0 1.16435e-21 1.99347e-37 -0 -0 -0 0)
(1.13329e-05 7.05987e-22 -0 -2.45953e-22 -1.53217e-38 0 -0 -0 0)
(1.13327e-05 -6.00813e-22 -0 -1.48251e-21 7.85968e-38 0 -0 0 0)
(1.13325e-05 -1.21263e-21 -0 -1.09885e-21 1.17582e-37 0 -0 0 0)
(1.13324e-05 -1.3798e-21 -0 -6.12669e-22 7.45971e-38 0 -0 0 0)
(1.13323e-05 2.23069e-25 -0 4.57166e-23 8.99903e-43 -0 -0 -0 0)
(1.13322e-05 1.78315e-22 -0 -5.63716e-23 -8.87022e-40 0 -0 -0 0)
(1.13322e-05 -5.11602e-22 -0 -8.57271e-22 3.87024e-38 0 -0 0 0)
(1.13321e-05 5.72783e-23 -0 -2.2354e-22 -1.12988e-39 0 -0 -0 0)
(1.1383e-05 -7.95639e-19 -0 -8.05884e-19 5.63292e-32 0 -0 0 0)
(1.1383e-05 1.63841e-19 -0 1.65618e-19 2.38383e-33 -0 -0 -0 0)
(1.13819e-05 -3.61837e-20 -0 -3.78926e-20 1.20463e-34 0 -0 0 0)
(1.13815e-05 8.01935e-21 -0 6.61169e-21 4.65856e-36 -0 -0 -0 0)
(1.13809e-05 -1.66122e-21 -0 -3.10925e-21 4.53846e-37 0 -0 0 0)
(1.13805e-05 3.42557e-23 -0 -2.26437e-21 -6.81584e-39 0 -0 -0 0)
(1.13799e-05 -7.40878e-22 -0 -2.20777e-21 1.43734e-37 0 -0 0 0)
(1.13796e-05 -5.97944e-22 -0 -1.69025e-22 8.8815e-39 0 -0 0 0)
(1.13791e-05 -2.2194e-22 -0 7.26019e-22 -1.41603e-38 -0 -0 0 0)
(1.13788e-05 -3.62016e-22 -0 -2.67191e-22 8.50066e-39 0 -0 0 0)
(1.13785e-05 -2.59105e-22 -0 8.0505e-23 -1.83322e-39 -0 -0 0 0)
(1.13782e-05 4.59257e-22 -0 1.17901e-21 4.75884e-38 -0 -0 -0 0)
(1.1378e-05 9.57612e-22 -0 1.54536e-21 1.30064e-37 -0 -0 -0 0)
(1.13777e-05 1.24749e-21 -0 1.53694e-21 1.68515e-37 -0 -0 -0 0)
(1.13776e-05 1.28681e-21 -0 -3.19012e-23 -3.60805e-39 0 -0 -0 0)
(1.13774e-05 -7.80288e-22 -0 -1.22489e-21 8.40053e-38 0 -0 0 0)
(1.13773e-05 -1.53156e-21 -0 -1.31329e-21 1.76788e-37 0 -0 0 0)
(1.13772e-05 -8.97727e-22 -0 -2.81954e-22 2.22478e-38 0 -0 0 0)
(1.13772e-05 -1.6035e-22 -0 4.68871e-22 -6.60825e-39 -0 -0 0 0)
(1.13772e-05 2.66034e-22 -0 1.42653e-22 3.33569e-39 -0 -0 -0 0)
(1.14212e-05 7.4013e-19 -0 7.46606e-19 4.83823e-32 -0 -0 -0 0)
(1.14212e-05 -1.54034e-19 -0 -1.57006e-19 2.11748e-33 0 -0 0 0)
(1.14202e-05 3.64679e-20 -0 3.50341e-20 1.11874e-34 -0 -0 -0 0)
(1.14198e-05 -7.45078e-21 -0 -8.89409e-21 5.80289e-36 0 -0 0 0)
(1.14191e-05 7.03574e-22 -0 2.36567e-22 1.45758e-38 -0 -0 -0 0)
(1.14187e-05 -2.00212e-22 -0 -8.92763e-22 1.56534e-38 0 -0 0 0)
(1.14182e-05 -3.10417e-22 -0 -4.35462e-22 1.18386e-38 0 -0 0 0)
(1.14178e-05 -6.36343e-22 -0 -2.96982e-22 1.65516e-38 0 -0 0 0)
(1.14174e-05 -7.07981e-22 -0 -6.36361e-22 3.94602e-38 0 -0 0 0)
(1.1417e-05 -5.02645e-22 -0 -1.13502e-21 4.99701e-38 0 -0 0 0)
(1.14167e-05 -1.31147e-21 -0 -1.23275e-21 1.4161e-37 0 -0 0 0)
(1.14164e-05 -2.20384e-22 -0 7.01152e-22 -1.35351e-38 -0 -0 0 0)
(1.14162e-05 1.07551e-21 -0 8.75741e-22 8.25028e-38 -0 -0 -0 0)
(1.14159e-05 -5.67391e-22 -0 -7.05339e-22 3.50565e-38 0 -0 0 0)
(1.14158e-05 -1.45097e-21 -0 -1.94009e-21 2.46589e-37 0 -0 0 0)
(1.14156e-05 -1.45818e-21 -0 -7.5584e-22 9.65474e-38 0 -0 0 0)
(1.14155e-05 -5.41342e-22 -0 2.81334e-22 -1.33413e-38 -0 -0 0 0)
(1.14154e-05 5.10628e-22 -0 5.42383e-22 2.42615e-38 -0 -0 -0 0)
(1.14154e-05 3.09408e-22 -0 2.67859e-22 7.26018e-39 -0 -0 -0 0)
(1.14154e-05 -4.73373e-22 -0 1.05833e-23 -4.38868e-40 -0 -0 0 0)
(1.14581e-05 -3.9906e-19 -0 -4.01707e-19 1.39906e-32 0 -0 0 0)
(1.14581e-05 8.45764e-20 -0 8.31077e-20 6.13448e-34 -0 -0 -0 0)
(1.1457e-05 -2.05008e-20 -0 -2.17073e-20 3.88424e-35 0 -0 0 0)
(1.14566e-05 3.44461e-21 -0 3.31426e-21 9.96481e-37 -0 -0 -0 0)
(1.1456e-05 -7.32385e-22 -0 -7.96544e-22 5.09235e-38 0 -0 0 0)
(1.14555e-05 6.53041e-22 -0 7.14581e-22 4.07359e-38 -0 -0 -0 0)
(1.1455e-05 6.85914e-23 -0 -4.10615e-22 -2.45871e-39 0 -0 -0 0)
(1.14546e-05 -6.18741e-22 -0 -4.28738e-22 2.31591e-38 0 -0 0 0)
(1.14542e-05 -1.00783e-21 -0 -3.58583e-22 3.15507e-38 0 -0 0 0)
(1.14538e-05 -1.73698e-22 -0 1.79787e-22 -2.72649e-39 -0 -0 0 0)
(1.14536e-05 1.87381e-22 -0 4.78703e-22 7.83161e-39 -0 -0 -0 0)
(1.14532e-05 -2.24866e-22 -0 2.09477e-22 -4.11277e-39 -0 -0 0 0)
(1.1453e-05 7.66495e-23 -0 1.73794e-22 1.16312e-39 -0 -0 -0 0)
(1.14527e-05 -8.21466e-22 -0 -1.01095e-21 7.25117e-38 0 -0 0 0)
(1.14526e-05 -1.59974e-21 -0 -1.58022e-21 2.2073e-37 0 -0 0 0)
(1.14524e-05 -4.5891e-22 -0 -3.51188e-22 1.40725e-38 0 -0 0 0)
(1.14524e-05 4.86763e-22 -0 8.78334e-23 3.73321e-39 -0 -0 -0 0)
(1.14523e-05 -3.59435e-22 -0 -9.24862e-22 2.90273e-38 0 -0 0 0)
(1.14522e-05 -8.34353e-22 -0 -1.02258e-21 7.45e-38 0 -0 0 0)
(1.14522e-05 -1.01194e-21 -0 -7.1931e-22 6.35597e-38 0 -0 0 0)
(1.14966e-05 -1.60047e-19 -0 -1.63995e-19 2.283e-33 0 -0 0 0)
(1.14966e-05 3.11676e-20 -0 3.06511e-20 8.30957e-35 -0 -0 -0 0)
(1.14956e-05 -1.03251e-20 -0 -9.05773e-21 8.13542e-36 0 -0 0 0)
(1.14952e-05 1.93188e-21 -0 2.40611e-21 4.04371e-37 -0 -0 -0 0)
(1.14945e-05 1.83566e-21 -0 2.4677e-22 3.94089e-38 -0 -0 -0 0)
(1.14941e-05 1.27038e-22 -0 -1.09764e-21 -1.21316e-38 0 -0 -0 0)
(1.14936e-05 -1.43364e-21 -0 -1.75395e-21 2.18778e-37 0 -0 0 0)
(1.14932e-05 -1.93415e-21 -0 -1.38691e-21 2.33398e-37 0 -0 0 0)
(1.14927e-05 -1.1542e-21 -0 5.64083e-22 -5.66503e-38 -0 -0 0 0)
(1.14924e-05 1.03169e-21 -0 2.9965e-21 2.68999e-37 -0 -0 -0 0)
(1.14921e-05 2.93156e-21 -0 3.27979e-21 8.36655e-37 -0 -0 -0 0)
(1.14918e-05 1.98766e-21 -0 1.31941e-21 2.2821e-37 -0 -0 -0 0)
(1.14915e-05 9.52462e-23 -0 -1.47055e-22 -1.21885e-39 0 -0 -0 0)
(1.14913e-05 6.42914e-22 -0 2.34927e-22 1.31437e-38 -0 -0 -0 0)
(1.14911e-05 1.44353e-21 -0 1.48801e-21 1.86926e-37 -0 -0 -0 0)
(1.1491e-05 1.5063e-21 -0 8.05163e-22 1.05545e-37 -0 -0 -0 0)
(1.14909e-05 1.06157e-21 -0 4.74508e-22 4.38366e-38 -0 -0 -0 0)
(1.14908e-05 2.57265e-22 -0 6.45981e-22 1.44628e-38 -0 -0 -0 0)
(1.14908e-05 6.68794e-22 -0 1.3382e-21 7.7887e-38 -0 -0 -0 0)
(1.14907e-05 2.52533e-22 -0 5.81847e-22 1.27873e-38 -0 -0 -0 0)
(1.15389e-05 6.90913e-19 -0 6.9267e-19 4.14748e-32 -0 -0 -0 0)
(1.15389e-05 -1.45198e-19 -0 -1.46751e-19 1.84661e-33 0 -0 0 0)
(1.15379e-05 3.31558e-20 -0 3.33524e-20 9.58434e-35 -0 -0 -0 0)
(1.15375e-05 -6.93903e-21 -0 -7.20693e-21 4.33449e-36 0 -0 0 0)
(1.15368e-05 2.24445e-21 -0 1.72015e-21 3.3465e-37 -0 -0 -0 0)
(1.15364e-05 -3.97134e-23 -0 2.25745e-22 -7.77119e-40 -0 -0 0 0)
(1.15358e-05 8.71646e-23 -0 1.89571e-21 1.4324e-38 -0 -0 -0 0)
(1.15354e-05 4.12202e-22 -0 1.09499e-21 3.91281e-38 -0 -0 -0 0)
(1.1535e-05 4.23942e-22 -0 6.7011e-22 2.46283e-38 -0 -0 -0 0)
(1.15346e-05 5.169e-22 -0 1.24312e-21 5.57077e-38 -0 -0 -0 0)
(1.15343e-05 1.99732e-22 -0 -9.12392e-24 -1.57993e-40 0 -0 -0 0)
(1.1534e-05 -2.43241e-23 -0 -2.84749e-22 6.00506e-40 0 -0 0 0)
(1.15338e-05 5.82051e-22 -0 4.38688e-22 2.21383e-38 -0 -0 -0 0)
(1.15335e-05 1.58145e-21 -0 8.16507e-22 1.11957e-37 -0 -0 -0 0)
(1.15334e-05 1.36443e-21 -0 6.30266e-22 7.45621e-38 -0 -0 -0 0)
(1.15332e-05 6.15473e-22 -0 -4.48509e-22 -2.39348e-38 0 -0 -0 0)
(1.15331e-05 2.53652e-22 -0 -1.1243e-22 -2.47272e-39 0 -0 -0 0)
(1.1533e-05 3.8985e-22 -0 1.17455e-21 3.97031e-38 -0 -0 -0 0)
(1.1533e-05 9.6688e-22 -0 2.36523e-21 1.98291e-37 -0 -0 -0 0)
(1.1533e-05 9.93522e-22 -0 1.6915e-21 1.45716e-37 -0 -0 -0 0)
(1.15862e-05 -8.90559e-19 -0 -8.97112e-19 6.89553e-32 0 -0 0 0)
(1.15862e-05 1.92806e-19 -0 1.92491e-19 3.20323e-33 -0 -0 -0 0)
(1.15851e-05 -4.30479e-20 -0 -4.47805e-20 1.66395e-34 0 -0 0 0)
(1.15847e-05 9.69037e-21 -0 8.83397e-21 7.38942e-36 -0 -0 -0 0)
(1.1584e-05 -2.76672e-21 -0 -3.0491e-21 7.28243e-37 0 -0 0 0)
(1.15836e-05 -1.57569e-21 -0 -8.85822e-22 1.20497e-37 0 -0 0 0)
(1.15831e-05 -2.26137e-21 -0 2.39937e-22 -4.68429e-38 -0 -0 0 0)
(1.15827e-05 -5.49829e-23 -0 2.38931e-21 -1.1342e-38 -0 -0 0 0)
(1.15823e-05 1.20613e-21 -0 1.9164e-21 1.99566e-37 -0 -0 -0 0)
(1.15819e-05 8.91857e-22 -0 6.86602e-22 5.28716e-38 -0 -0 -0 0)
(1.15816e-05 -2.7359e-22 -0 3.37324e-23 -7.96853e-40 -0 -0 0 0)
(1.15812e-05 1.14441e-22 -0 4.20151e-22 4.15177e-39 -0 -0 -0 0)
(1.15811e-05 1.20523e-21 -0 8.45105e-22 8.79496e-38 -0 -0 -0 0)
(1.15807e-05 1.48585e-21 -0 1.00488e-21 1.28929e-37 -0 -0 -0 0)
(1.15806e-05 7.19496e-22 -0 1.22353e-22 7.60171e-39 -0 -0 -0 0)
(1.15804e-05 8.07986e-22 -0 3.91881e-22 2.73422e-38 -0 -0 -0 0)
(1.15804e-05 5.83745e-22 -0 -4.21781e-24 -2.12612e-40 0 -0 -0 0)
(1.15803e-05 -1.26983e-22 -0 2.04234e-22 -2.23952e-39 -0 -0 0 0)
(1.15802e-05 -1.13347e-22 -0 3.25482e-22 -3.18582e-39 -0 -0 0 0)
(1.15802e-05 2.65974e-22 -0 6.85867e-22 1.5753e-38 -0 -0 -0 0)
(1.16389e-05 6.22848e-19 -0 6.23833e-19 3.33841e-32 -0 -0 -0 0)
(1.16389e-05 -1.31403e-19 -0 -1.33475e-19 1.50692e-33 0 -0 0 0)
(1.16378e-05 3.01637e-20 -0 3.03894e-20 7.87657e-35 -0 -0 -0 0)
(1.16374e-05 -6.37727e-21 -0 -6.10088e-21 3.34327e-36 0 -0 0 0)
(1.16367e-05 1.37479e-21 -0 2.89158e-21 3.41619e-37 -0 -0 -0 0)
(1.16363e-05 -6.74629e-23 -0 1.20272e-21 -6.97292e-39 -0 -0 0 0)
(1.16357e-05 1.53053e-22 -0 1.29081e-21 1.6979e-38 -0 -0 -0 0)
(1.16353e-05 7.00209e-22 -0 1.82054e-21 1.0956e-37 -0 -0 -0 0)
(1.16349e-05 1.06373e-21 -0 1.38677e-21 1.26786e-37 -0 -0 -0 0)
(1.16345e-05 6.59207e-22 -0 8.99162e-22 5.0946e-38 -0 -0 -0 0)
(1.16342e-05 6.91303e-22 -0 1.93807e-21 1.1516e-37 -0 -0 -0 0)
(1.16339e-05 7.09576e-22 -0 5.72815e-22 3.49372e-38 -0 -0 -0 0)
(1.16336e-05 -4.24025e-22 -0 -1.2018e-21 4.38037e-38 0 -0 0 0)
(1.16334e-05 -4.36372e-22 -0 -7.00493e-22 2.62757e-38 0 -0 0 0)
(1.16332e-05 7.31745e-22 -0 5.33563e-23 3.35618e-39 -0 -0 -0 0)
(1.16331e-05 6.76605e-22 -0 3.04789e-22 1.77272e-38 -0 -0 -0 0)
(1.1633e-05 2.69943e-22 -0 3.8335e-22 8.89565e-39 -0 -0 -0 0)
(1.16329e-05 -1.24212e-22 -0 6.38333e-23 -6.81589e-40 -0 -0 0 0)
(1.16328e-05 -1.93924e-22 -0 -4.17722e-22 6.96359e-39 0 -0 0 0)
(1.16328e-05 8.02395e-23 -0 2.35415e-22 1.62382e-39 -0 -0 -0 0)
(1.16954e-05 1.42565e-19 -0 1.39517e-19 1.7007e-33 -0 -0 -0 0)
(1.16954e-05 -3.54099e-20 -0 -3.54705e-20 1.07393e-34 0 -0 0 0)
(1.16944e-05 8.22618e-21 -0 7.60299e-21 5.34818e-36 -0 -0 -0 0)
(1.16939e-05 -2.31696e-21 -0 -1.38795e-21 2.75002e-37 0 -0 0 0)
(1.16932e-05 5.74497e-22 -0 3.07138e-21 1.509e-37 -0 -0 -0 0)
(1.16927e-05 1.61959e-21 -0 3.89712e-21 5.398e-37 -0 -0 -0 0)
(1.16922e-05 2.8363e-21 -0 3.31002e-21 8.02947e-37 -0 -0 -0 0)
(1.16918e-05 1.55016e-21 -0 1.06977e-21 1.41835e-37 -0 -0 -0 0)
(1.16914e-05 3.71577e-22 -0 2.24927e-22 7.14867e-39 -0 -0 -0 0)
(1.1691e-05 3.31092e-22 -0 5.97359e-22 1.69174e-38 -0 -0 -0 0)
(1.16907e-05 1.26683e-21 -0 1.32056e-21 1.43099e-37 -0 -0 -0 0)
(1.16904e-05 3.51954e-22 -0 -3.58143e-22 -1.07824e-38 0 -0 -0 0)
(1.16901e-05 -9.75345e-22 -0 -1.25527e-21 1.04732e-37 0 -0 0 0)
(1.16899e-05 1.44158e-22 -0 -4.6398e-22 -5.72175e-39 0 -0 -0 0)
(1.16897e-05 1.84151e-22 -0 -4.77891e-22 -7.52838e-39 0 -0 -0 0)
(1.16895e-05 -5.56865e-22 -0 -6.69111e-22 3.18751e-38 0 -0 0 0)
(1.16894e-05 -8.87764e-22 -0 -4.09845e-23 3.1126e-39 0 -0 0 0)
(1.16893e-05 -5.89483e-22 -0 -3.26131e-22 1.64465e-38 0 -0 0 0)
(1.16893e-05 -3.58638e-22 -0 -2.03071e-22 6.2304e-39 0 -0 0 0)
(1.16893e-05 9.29284e-23 -0 3.64134e-22 2.89483e-39 -0 -0 -0 0)
(1.1751e-05 -9.62518e-19 -0 -9.67832e-19 7.92748e-32 0 -0 0 0)
(1.1751e-05 2.03265e-19 -0 2.04416e-19 3.53593e-33 -0 -0 -0 0)
(1.17498e-05 -4.65321e-20 -0 -4.72844e-20 1.87257e-34 0 -0 0 0)
(1.17495e-05 1.00197e-20 -0 1.04988e-20 8.95319e-36 -0 -0 -0 0)
(1.17487e-05 -3.00605e-21 -0 -2.1512e-21 5.50409e-37 0 -0 0 0)
(1.17483e-05 6.04587e-23 -0 1.73407e-21 8.92381e-39 -0 -0 -0 0)
(1.17477e-05 1.30494e-21 -0 1.8096e-21 2.0101e-37 -0 -0 -0 0)
(1.17474e-05 1.78254e-21 -0 1.10155e-21 1.67148e-37 -0 -0 -0 0)
(1.17469e-05 1.00693e-21 -0 4.13198e-22 3.54188e-38 -0 -0 -0 0)
(1.17465e-05 6.77902e-22 -0 5.65068e-22 3.26105e-38 -0 -0 -0 0)
(1.17462e-05 8.94832e-22 -0 -3.22666e-22 -2.45809e-38 0 -0 -0 0)
(1.17459e-05 -2.94168e-22 -0 -8.7399e-22 2.18885e-38 0 -0 0 0)
(1.17456e-05 -7.81942e-22 -0 -6.99753e-22 4.65847e-38 0 -0 0 0)
(1.17454e-05 -7.10376e-22 -0 -1.13499e-21 6.86457e-38 0 -0 0 0)
(1.17452e-05 -1.48466e-21 -0 -8.9341e-22 1.12932e-37 0 -0 0 0)
(1.1745e-05 -1.13483e-21 -0 3.24824e-22 -3.13851e-38 -0 -0 0 0)
(1.17449e-05 8.33665e-23 -0 1.15783e-21 8.21837e-39 -0 -0 -0 0)
(1.17449e-05 6.33927e-22 -0 1.8366e-22 9.91304e-39 -0 -0 -0 0)
(1.17448e-05 -4.505e-24 -0 -1.56692e-22 6.01031e-41 0 -0 0 0)
(1.17448e-05 -4.76693e-22 -0 -2.27279e-22 9.2247e-39 0 -0 0 0)
(1.17969e-05 4.13264e-19 -0 4.17241e-19 1.46166e-32 -0 -0 -0 0)
(1.17969e-05 -7.69676e-20 -0 -7.83928e-20 5.11465e-34 0 -0 0 0)
(1.17958e-05 1.87438e-20 -0 1.96758e-20 3.12652e-35 -0 -0 -0 0)
(1.17954e-05 -3.44862e-21 -0 -2.48821e-21 7.27475e-37 0 -0 0 0)
(1.17948e-05 6.72068e-22 -0 1.36662e-21 7.78706e-38 -0 -0 -0 0)
(1.17943e-05 1.41436e-21 -0 1.89885e-21 2.27708e-37 -0 -0 -0 0)
(1.17938e-05 2.93078e-21 -0 3.005e-21 7.46748e-37 -0 -0 -0 0)
(1.17934e-05 3.53226e-21 -0 3.02244e-21 9.05258e-37 -0 -0 -0 0)
(1.1793e-05 2.81016e-21 -0 1.78107e-21 4.24414e-37 -0 -0 -0 0)
(1.17926e-05 1.72461e-21 -0 7.8864e-22 1.15335e-37 -0 -0 -0 0)
(1.17923e-05 -4.8848e-22 -0 -1.21261e-21 5.0231e-38 0 -0 0 0)
(1.17919e-05 -1.42421e-21 -0 -6.56835e-22 7.93313e-38 0 -0 0 0)
(1.17917e-05 -2.04161e-22 -0 8.56806e-22 -1.48347e-38 -0 -0 0 0)
(1.17914e-05 1.56699e-22 -0 4.82465e-22 6.41161e-39 -0 -0 -0 0)
(1.17913e-05 -8.44797e-23 -0 2.737e-22 -1.96094e-39 -0 -0 0 0)
(1.17911e-05 3.00349e-22 -0 8.02255e-22 2.04354e-38 -0 -0 -0 0)
(1.1791e-05 8.55335e-22 -0 7.23449e-22 5.24799e-38 -0 -0 -0 0)
(1.17909e-05 6.94591e-22 -0 4.54754e-22 2.67891e-38 -0 -0 -0 0)
(1.17909e-05 3.629e-22 -0 4.04657e-22 1.24546e-38 -0 -0 -0 0)
(1.17909e-05 -3.74204e-22 -0 -2.08223e-22 6.60834e-39 0 -0 0 0)
(1.18175e-05 9.65277e-19 -0 9.64748e-19 7.88025e-32 -0 -0 -0 0)
(1.18175e-05 -2.04773e-19 -0 -2.05807e-19 3.56621e-33 0 -0 0 0)
(1.18175e-05 4.84356e-20 -0 4.88098e-20 2.00054e-34 -0 -0 -0 0)
(1.18175e-05 -1.05482e-20 -0 -9.70612e-21 8.66364e-36 0 -0 0 0)
(1.18175e-05 2.68359e-21 -0 3.08402e-21 7.00341e-37 -0 -0 -0 0)
(1.18174e-05 8.91887e-22 -0 4.54571e-22 3.43074e-38 -0 -0 -0 0)
(1.18174e-05 1.57934e-21 -0 1.19304e-21 1.59444e-37 -0 -0 -0 0)
(1.18174e-05 8.61861e-22 -0 7.66641e-22 5.59122e-38 -0 -0 -0 0)
(1.18174e-05 6.25997e-22 -0 5.28499e-22 2.79959e-38 -0 -0 -0 0)
(1.18174e-05 7.44689e-22 -0 3.69035e-22 2.32552e-38 -0 -0 -0 0)
(1.18174e-05 -3.20119e-22 -0 -4.23845e-22 1.14814e-38 0 -0 0 0)
(1.18174e-05 -5.74951e-22 -0 -3.90272e-24 1.89879e-40 0 -0 0 0)
(1.18174e-05 3.38292e-22 -0 1.0642e-21 3.04642e-38 -0 -0 -0 0)
(1.18174e-05 1.13092e-21 -0 1.55608e-21 1.48917e-37 -0 -0 -0 0)
(1.18174e-05 7.60223e-22 -0 1.02199e-21 6.57457e-38 -0 -0 -0 0)
(1.18174e-05 9.47136e-22 -0 8.87553e-22 7.11353e-38 -0 -0 -0 0)
(1.18174e-05 7.77663e-22 -0 1.0831e-22 7.1275e-39 -0 -0 -0 0)
(1.18174e-05 1.38421e-22 -0 1.32445e-22 1.55137e-39 -0 -0 -0 0)
(1.18174e-05 2.36359e-22 -0 3.95449e-22 7.90935e-39 -0 -0 -0 0)
(1.18174e-05 -1.36177e-24 -0 2.00836e-22 -2.31433e-41 -0 -0 0 0)
)
;

boundaryField
{
    movingWall
    {
        type            calculated;
        value           nonuniform List<tensor> 
20
(
(1.18175e-05 0 0 0 0 0 0 0 0)
(1.18175e-05 0 0 0 0 0 0 0 0)
(1.18175e-05 0 0 0 0 0 0 0 0)
(1.18175e-05 0 0 0 0 0 0 0 0)
(1.18175e-05 0 0 0 0 0 0 0 0)
(1.18174e-05 0 0 0 0 0 0 0 0)
(1.18174e-05 0 0 0 0 0 0 0 0)
(1.18174e-05 0 0 0 0 0 0 0 0)
(1.18174e-05 0 0 0 0 0 0 0 0)
(1.18174e-05 0 0 0 0 0 0 0 0)
(1.18174e-05 0 0 0 0 0 0 0 0)
(1.18174e-05 0 0 0 0 0 0 0 0)
(1.18174e-05 0 0 0 0 0 0 0 0)
(1.18174e-05 0 0 0 0 0 0 0 0)
(1.18174e-05 0 0 0 0 0 0 0 0)
(1.18174e-05 0 0 0 0 0 0 0 0)
(1.18174e-05 0 0 0 0 0 0 0 0)
(1.18174e-05 0 0 0 0 0 0 0 0)
(1.18174e-05 0 0 0 0 0 0 0 0)
(1.18174e-05 0 0 0 0 0 0 0 0)
)
;
    }
    fixedWalls
    {
        type            calculated;
        value           nonuniform List<tensor> 
60
(
(8.6976e-06 0 0 0 0 0 0 0 0)
(9.13932e-06 0 0 0 0 0 0 0 0)
(9.76543e-06 0 0 0 0 0 0 0 0)
(1.03364e-05 0 0 0 0 0 0 0 0)
(1.07524e-05 0 0 0 0 0 0 0 0)
(1.10191e-05 0 0 0 0 0 0 0 0)
(1.11796e-05 0 0 0 0 0 0 0 0)
(1.1276e-05 0 0 0 0 0 0 0 0)
(1.13379e-05 0 0 0 0 0 0 0 0)
(1.1383e-05 0 0 0 0 0 0 0 0)
(1.14212e-05 0 0 0 0 0 0 0 0)
(1.14581e-05 0 0 0 0 0 0 0 0)
(1.14966e-05 0 0 0 0 0 0 0 0)
(1.15389e-05 0 0 0 0 0 0 0 0)
(1.15862e-05 0 0 0 0 0 0 0 0)
(1.16389e-05 0 0 0 0 0 0 0 0)
(1.16954e-05 0 0 0 0 0 0 0 0)
(1.1751e-05 0 0 0 0 0 0 0 0)
(1.17969e-05 0 0 0 0 0 0 0 0)
(1.18175e-05 0 0 0 0 0 0 0 0)
(8.69753e-06 0 0 0 0 0 0 0 0)
(9.13568e-06 0 0 0 0 0 0 0 0)
(9.7612e-06 0 0 0 0 0 0 0 0)
(1.03317e-05 0 0 0 0 0 0 0 0)
(1.07473e-05 0 0 0 0 0 0 0 0)
(1.10136e-05 0 0 0 0 0 0 0 0)
(1.1174e-05 0 0 0 0 0 0 0 0)
(1.12703e-05 0 0 0 0 0 0 0 0)
(1.13321e-05 0 0 0 0 0 0 0 0)
(1.13772e-05 0 0 0 0 0 0 0 0)
(1.14154e-05 0 0 0 0 0 0 0 0)
(1.14522e-05 0 0 0 0 0 0 0 0)
(1.14907e-05 0 0 0 0 0 0 0 0)
(1.1533e-05 0 0 0 0 0 0 0 0)
(1.15802e-05 0 0 0 0 0 0 0 0)
(1.16328e-05 0 0 0 0 0 0 0 0)
(1.16893e-05 0 0 0 0 0 0 0 0)
(1.17448e-05 0 0 0 0 0 0 0 0)
(1.17909e-05 0 0 0 0 0 0 0 0)
(1.18174e-05 0 0 0 0 0 0 0 0)
(8.6976e-06 0 0 0 0 0 0 0 0)
(8.69759e-06 0 0 0 0 0 0 0 0)
(8.69758e-06 0 0 0 0 0 0 0 0)
(8.69757e-06 0 0 0 0 0 0 0 0)
(8.69757e-06 0 0 0 0 0 0 0 0)
(8.69756e-06 0 0 0 0 0 0 0 0)
(8.69755e-06 0 0 0 0 0 0 0 0)
(8.69755e-06 0 0 0 0 0 0 0 0)
(8.69754e-06 0 0 0 0 0 0 0 0)
(8.69754e-06 0 0 0 0 0 0 0 0)
(8.69754e-06 0 0 0 0 0 0 0 0)
(8.69754e-06 0 0 0 0 0 0 0 0)
(8.69753e-06 0 0 0 0 0 0 0 0)
(8.69753e-06 0 0 0 0 0 0 0 0)
(8.69753e-06 0 0 0 0 0 0 0 0)
(8.69753e-06 0 0 0 0 0 0 0 0)
(8.69753e-06 0 0 0 0 0 0 0 0)
(8.69753e-06 0 0 0 0 0 0 0 0)
(8.69753e-06 0 0 0 0 0 0 0 0)
(8.69753e-06 0 0 0 0 0 0 0 0)
)
;
    }
    frontAndBack
    {
        type            empty;
    }
}


// ************************************************************************* //
