/*--------------------------------*- C++ -*----------------------------------*\
| =========                 |                                                 |
| \\      /  F ield         | OpenFOAM: The Open Source CFD Toolbox           |
|  \\    /   O peration     | Version:  2506                                  |
|   \\  /    A nd           | Website:  www.openfoam.com                      |
|    \\/     M anipulation  |                                                 |
\*---------------------------------------------------------------------------*/
FoamFile
{
    version     2.0;
    format      ascii;
    arch        "LSB;label=32;scalar=64";
    class       volVectorField;
    location    "6";
    object      LambVectorField;
}
// * * * * * * * * * * * * * * * * * * * * * * * * * * * * * * * * * * * * * //

dimensions      [0 1 -2 0 0 0 0];

internalField   nonuniform List<vector> 
400
(
(-9.20774e-25 -8.11473e-12 0)
(-2.52417e-25 1.05527e-11 -0)
(-1.30346e-26 -2.25756e-12 0)
(-5.52605e-28 5.1506e-13 -0)
(-1.24419e-29 -3.53349e-14 0)
(3.86579e-30 4.12986e-14 0)
(1.00196e-29 4.76717e-14 0)
(6.20277e-30 3.90137e-14 0)
(3.71327e-30 4.07639e-14 0)
(1.23364e-31 5.5071e-15 0)
(9.91986e-31 2.75391e-14 0)
(1.04702e-31 5.79743e-15 0)
(-1.27941e-30 5.82788e-14 -0)
(1.27925e-30 -5.65371e-14 -0)
(3.06436e-32 2.32791e-14 0)
(1.29841e-31 8.30587e-15 0)
(-8.83484e-31 1.08082e-14 -0)
(1.19833e-30 -1.29621e-14 -0)
(-3.63348e-31 -7.58897e-15 0)
(-5.18627e-32 3.1319e-15 -0)
(-3.78027e-26 -1.27724e-12 0)
(-1.50397e-26 2.40492e-12 -0)
(-1.18747e-27 -6.77327e-13 0)
(-5.26781e-29 1.79428e-13 -0)
(5.21931e-30 -1.26977e-13 -0)
(9.68379e-30 -8.9646e-14 -0)
(-5.58829e-30 -1.32413e-13 0)
(-5.35828e-30 -4.06234e-14 0)
(8.06687e-31 4.5476e-15 0)
(1.07436e-30 1.24311e-14 0)
(-1.01429e-30 -1.911e-14 0)
(9.1178e-32 1.40823e-14 0)
(4.2257e-30 -4.81581e-14 -0)
(8.28994e-31 -1.53389e-14 -0)
(-3.08568e-30 -4.7007e-14 0)
(-7.51082e-30 -5.18079e-14 0)
(7.12128e-31 1.71098e-14 0)
(-1.6738e-31 6.40715e-15 -0)
(-1.47614e-31 6.57506e-15 -0)
(1.05036e-30 -1.14325e-14 -0)
(-7.11312e-25 5.72907e-12 -0)
(-2.87328e-25 -1.06326e-11 0)
(-1.64031e-26 2.54377e-12 -0)
(-6.91077e-28 -5.25717e-13 0)
(-4.97183e-29 1.31525e-13 -0)
(4.07952e-32 -5.72493e-14 -0)
(1.93843e-30 -2.53157e-14 -0)
(1.78664e-30 -9.60234e-14 -0)
(-8.15765e-30 -1.15692e-13 0)
(-2.70512e-30 -4.99936e-14 0)
(-2.2475e-30 -7.92868e-14 0)
(-1.86307e-30 -5.50786e-14 0)
(-3.12705e-30 -8.44439e-14 0)
(-2.32976e-30 -3.57803e-14 0)
(-1.09547e-29 -8.84992e-14 0)
(-2.83817e-30 -2.07237e-14 0)
(-2.14303e-30 -3.57354e-14 0)
(1.69652e-30 -3.54966e-14 -0)
(-4.38393e-30 3.44741e-14 -0)
(-2.72131e-31 2.24005e-15 -0)
(-3.97276e-25 -4.97076e-12 0)
(-1.23239e-25 7.16322e-12 -0)
(-6.69294e-27 -1.69289e-12 0)
(-2.7002e-28 3.30226e-13 -0)
(-1.63833e-29 -4.30857e-14 0)
(1.77288e-29 1.14176e-13 0)
(5.13537e-30 9.94366e-14 0)
(-2.2519e-30 8.6821e-14 -0)
(-2.50078e-31 7.32664e-14 -0)
(5.89459e-30 1.08058e-13 0)
(1.7314e-32 8.42783e-14 0)
(-2.6901e-31 -1.07956e-14 0)
(8.18183e-30 7.56444e-14 0)
(3.31804e-30 4.0649e-14 0)
(-2.73512e-30 1.00269e-13 -0)
(-3.31426e-30 3.07139e-14 -0)
(-5.30801e-30 8.37669e-14 -0)
(-1.18464e-29 8.94575e-14 -0)
(7.34584e-31 -5.07346e-15 -0)
(1.85011e-30 -2.2648e-14 -0)
(-1.24093e-27 2.1534e-12 -0)
(1.80628e-28 -5.04625e-13 -0)
(2.49496e-29 1.87337e-13 0)
(-2.38533e-30 3.79163e-14 -0)
(1.77548e-30 7.08255e-14 0)
(2.49552e-30 5.94372e-14 0)
(-2.42486e-30 8.91408e-14 -0)
(-1.98787e-30 5.48067e-14 -0)
(-1.44887e-30 4.36817e-14 -0)
(1.42697e-30 2.06766e-14 0)
(1.59178e-30 5.11576e-14 0)
(1.01352e-29 1.01821e-13 0)
(6.36073e-30 6.55032e-14 0)
(-1.72934e-30 1.29138e-13 -0)
(-7.74058e-30 7.03217e-14 -0)
(-1.3886e-29 7.95729e-14 -0)
(3.49664e-30 -3.774e-14 -0)
(7.74108e-32 -1.13576e-15 -0)
(4.63062e-31 -5.69619e-15 -0)
(4.07018e-31 -3.6354e-14 -0)
(-2.85036e-25 4.1777e-12 -0)
(-8.70341e-26 -5.99219e-12 0)
(-5.13218e-27 1.49754e-12 -0)
(-1.85157e-28 -2.9232e-13 0)
(-8.62266e-30 3.70353e-14 -0)
(1.70214e-31 -2.12768e-14 -0)
(5.48254e-31 -2.73374e-14 -0)
(-3.96213e-32 6.97923e-15 -0)
(4.20523e-30 -4.68041e-14 -0)
(5.69297e-30 -7.13967e-14 -0)
(-1.17388e-29 -1.43124e-13 0)
(-3.36812e-29 -1.26007e-13 0)
(6.00011e-30 2.32665e-14 0)
(1.13696e-30 3.28306e-14 0)
(-1.0019e-30 1.42274e-14 -0)
(-3.66033e-30 3.40042e-14 -0)
(-6.97906e-30 5.00607e-14 -0)
(2.9134e-30 -4.40431e-14 -0)
(-1.07826e-30 -3.59803e-14 0)
(1.18833e-31 5.25719e-15 0)
(-6.12769e-25 -7.18649e-12 0)
(-1.36627e-25 7.94503e-12 -0)
(-8.01214e-27 -1.91213e-12 0)
(-2.67465e-28 3.40423e-13 -0)
(-4.54587e-29 -1.86444e-13 0)
(4.70819e-31 -8.64135e-14 -0)
(-2.89094e-30 -1.21713e-13 0)
(-1.62701e-29 -1.27633e-13 0)
(-1.8725e-29 -8.67397e-14 0)
(-1.45604e-29 -8.01248e-14 0)
(2.69332e-30 1.32043e-14 0)
(1.44752e-30 2.9138e-14 0)
(-1.76893e-30 2.02377e-14 -0)
(4.02768e-30 -2.63766e-14 -0)
(7.02543e-30 -7.41926e-14 -0)
(-3.49466e-30 -7.41544e-14 0)
(-6.31691e-30 -6.03042e-14 0)
(-5.15232e-30 -4.76767e-14 0)
(4.43735e-31 1.12575e-14 0)
(-1.37906e-31 3.0596e-14 -0)
(-6.93167e-26 2.62897e-12 -0)
(-1.44963e-26 -2.63673e-12 0)
(-6.42628e-28 5.93181e-13 -0)
(-4.43805e-29 -1.17048e-13 0)
(2.62036e-30 3.00773e-14 0)
(1.45265e-31 1.85306e-15 0)
(-2.24586e-31 -3.27432e-15 0)
(-1.07752e-30 -9.69555e-15 0)
(4.36548e-30 2.63702e-14 0)
(8.77039e-30 7.4022e-14 0)
(-4.75459e-30 1.45965e-13 -0)
(-2.56677e-29 9.98893e-14 -0)
(1.13386e-29 -5.19369e-14 -0)
(4.45922e-31 -5.15935e-14 -0)
(-1.66858e-31 -6.27997e-15 0)
(-1.09654e-31 -2.02476e-15 0)
(-2.40418e-30 -5.13522e-14 0)
(1.38177e-30 5.40217e-14 0)
(8.98504e-32 1.84491e-15 0)
(-1.53428e-31 -2.1522e-14 0)
(-1.65975e-25 3.72753e-12 -0)
(-3.80856e-26 -4.16279e-12 0)
(-2.07256e-27 9.9358e-13 -0)
(-1.17008e-28 -2.05815e-13 0)
(-4.44086e-30 1.5972e-13 -0)
(5.44995e-30 9.81746e-14 0)
(4.27037e-30 5.72035e-14 0)
(3.11025e-30 1.21596e-13 0)
(-6.70322e-30 1.17392e-13 -0)
(-2.36357e-30 3.68527e-14 -0)
(3.59312e-30 -2.32448e-14 -0)
(1.01653e-29 -9.89431e-14 -0)
(-1.09512e-30 -5.04606e-14 0)
(-9.84558e-31 -7.52619e-15 0)
(7.44238e-31 7.67537e-15 0)
(5.46036e-31 1.00999e-14 0)
(-2.38497e-31 5.9119e-14 -0)
(-3.96383e-32 -7.96836e-15 0)
(1.93888e-30 2.56299e-14 0)
(1.8814e-31 9.53756e-15 0)
(-4.82654e-25 -6.8174e-12 0)
(-1.00924e-25 6.93655e-12 -0)
(-5.28212e-27 -1.58661e-12 0)
(-2.09018e-28 3.59809e-13 -0)
(-2.13064e-29 -7.79884e-14 0)
(1.57574e-30 7.91947e-15 0)
(1.4089e-29 7.26218e-14 0)
(7.85535e-31 5.28859e-14 0)
(-1.67432e-30 2.62423e-14 -0)
(-1.33204e-31 -5.67274e-15 0)
(-8.9927e-32 1.27102e-14 -0)
(-6.95133e-30 6.70847e-14 -0)
(-7.79019e-30 5.73564e-14 -0)
(-1.78885e-30 1.32426e-14 -0)
(-2.2006e-31 -7.84844e-14 0)
(-7.04875e-30 -6.54727e-14 0)
(9.56651e-31 8.2877e-15 0)
(3.88194e-31 1.56642e-14 0)
(-1.53805e-31 3.73209e-15 -0)
(6.73947e-32 -5.375e-15 -0)
(-4.08334e-25 6.24651e-12 -0)
(-8.78815e-26 -6.39285e-12 0)
(-4.14454e-27 1.35101e-12 -0)
(-3.42862e-28 -4.40227e-13 0)
(-8.89984e-31 4.29596e-14 -0)
(-4.69852e-30 -6.00956e-14 0)
(-1.86847e-30 -4.89927e-14 0)
(-3.57085e-30 -1.37285e-13 0)
(-7.96279e-30 -1.42866e-13 0)
(-8.60325e-30 -8.65393e-14 0)
(-1.19013e-30 -1.1022e-14 0)
(-2.79898e-30 4.55739e-14 -0)
(3.02433e-30 -3.94252e-14 -0)
(-6.54809e-30 -1.05981e-13 0)
(9.13769e-30 5.37676e-14 0)
(4.87773e-30 7.36694e-14 0)
(-9.48272e-31 3.84775e-14 -0)
(5.60732e-33 -1.18016e-16 -0)
(7.45325e-31 -3.17636e-14 -0)
(-2.2868e-32 2.46659e-14 -0)
(-1.18389e-25 -3.37688e-12 0)
(-2.34648e-26 3.2351e-12 -0)
(-1.4735e-27 -7.77705e-13 0)
(-2.14347e-29 7.40948e-14 -0)
(-9.11629e-30 -1.31111e-13 0)
(4.86221e-30 -7.79466e-14 -0)
(-3.27258e-30 -9.1296e-14 0)
(-9.97532e-31 -2.6651e-14 0)
(-2.37931e-30 -7.60026e-14 0)
(1.16163e-30 -7.40051e-14 -0)
(3.38774e-30 -8.10558e-14 -0)
(2.03168e-30 -1.11082e-13 -0)
(1.39562e-30 -9.19713e-14 -0)
(-8.52968e-30 -9.66305e-14 0)
(-1.04249e-29 -7.55546e-14 0)
(-2.0469e-30 -6.67503e-14 0)
(6.62062e-31 -8.63245e-14 -0)
(-5.16093e-30 -6.39061e-14 0)
(-4.6802e-30 -5.24153e-14 0)
(9.5534e-31 1.52101e-14 0)
(-2.35042e-26 -1.64774e-12 0)
(-3.80979e-27 1.42898e-12 -0)
(-1.93577e-28 -2.45678e-13 0)
(-4.53093e-29 2.16465e-13 -0)
(6.54383e-31 -3.0481e-14 -0)
(-1.6623e-30 -1.74071e-14 0)
(-3.84205e-31 -2.51768e-15 0)
(1.22463e-29 1.01484e-13 0)
(-8.52382e-30 1.73666e-13 -0)
(-4.14981e-29 1.59157e-13 -0)
(-2.67781e-29 9.38278e-14 -0)
(3.11629e-31 -2.71423e-15 -0)
(-1.20763e-31 -9.43694e-15 0)
(-1.95329e-30 9.5544e-14 -0)
(-1.11723e-29 8.62777e-14 -0)
(-5.07969e-30 7.24954e-14 -0)
(-2.18137e-30 5.28249e-14 -0)
(-4.99387e-30 8.88316e-14 -0)
(6.49967e-32 -5.58108e-16 -0)
(8.46105e-31 -1.67095e-14 -0)
(-3.3607e-25 5.59847e-12 -0)
(-7.26677e-26 -5.71382e-12 0)
(-3.88754e-27 1.34485e-12 -0)
(-1.37392e-28 -2.19949e-13 0)
(-2.98124e-29 1.99947e-13 -0)
(-1.62099e-30 8.28383e-14 -0)
(-1.90553e-29 1.15956e-13 -0)
(-1.56447e-30 1.64812e-14 -0)
(-1.64927e-30 2.83899e-14 -0)
(6.34616e-31 -5.88847e-15 -0)
(1.09628e-32 1.3859e-14 0)
(1.43418e-30 5.80927e-14 0)
(-2.42505e-30 6.37583e-14 -0)
(-3.95536e-30 5.58713e-14 -0)
(-2.36304e-30 4.32418e-14 -0)
(1.85772e-30 4.77706e-14 0)
(6.65656e-31 6.82832e-14 0)
(-4.94833e-30 4.85883e-14 -0)
(-1.75957e-29 8.57976e-14 -0)
(5.15899e-30 -3.5175e-14 -0)
(-4.54099e-25 -5.8647e-12 0)
(-1.18615e-25 7.13955e-12 -0)
(-6.54614e-27 -1.69354e-12 0)
(-2.74682e-28 3.60213e-13 -0)
(-3.63533e-29 -1.38113e-13 0)
(2.17127e-30 2.8393e-14 0)
(-1.14717e-30 5.53806e-14 -0)
(-8.57717e-30 4.15796e-14 -0)
(2.43226e-30 -1.47001e-14 -0)
(9.63621e-31 -1.62547e-14 -0)
(6.70008e-33 -2.30039e-15 -0)
(-2.22084e-30 6.12162e-14 -0)
(-4.32434e-30 5.92594e-14 -0)
(5.41521e-31 -6.24077e-15 -0)
(6.28671e-31 -5.95033e-14 -0)
(9.5422e-31 -2.8198e-14 -0)
(-1.04624e-32 -2.87254e-14 0)
(9.05857e-31 -5.1363e-14 -0)
(6.44935e-31 -2.29459e-14 -0)
(2.12262e-30 -3.58385e-14 -0)
(-2.08385e-25 3.88785e-12 -0)
(-5.56751e-26 -4.85483e-12 0)
(-3.14082e-27 1.20279e-12 -0)
(-1.23869e-28 -2.36278e-13 0)
(-1.55953e-29 6.27607e-14 -0)
(1.42175e-30 -1.37554e-14 -0)
(-5.89151e-31 5.31077e-15 -0)
(-1.29174e-31 8.25568e-16 -0)
(-2.28688e-30 1.91867e-14 -0)
(-4.55584e-30 5.89495e-14 -0)
(4.6722e-31 -2.8047e-15 -0)
(1.32884e-30 -2.69889e-14 -0)
(-6.73081e-30 -6.51552e-14 0)
(6.49653e-31 1.07891e-14 0)
(-3.96343e-32 8.64142e-15 -0)
(6.35836e-31 -2.42683e-14 -0)
(9.6147e-31 -2.91763e-14 -0)
(-1.10947e-31 2.02188e-14 -0)
(5.29648e-32 1.47498e-15 0)
(-3.1715e-32 1.56717e-15 -0)
(1.07279e-26 -8.99293e-13 -0)
(-2.10551e-27 -6.94232e-13 0)
(-1.18974e-28 1.82998e-13 -0)
(1.83523e-30 1.54623e-14 0)
(-1.89915e-29 7.23035e-14 -0)
(-9.71496e-30 2.91483e-14 -0)
(2.21919e-29 -7.83898e-14 -0)
(7.37431e-30 -8.05959e-14 -0)
(1.12066e-30 -5.82503e-14 -0)
(-4.78867e-31 9.37196e-15 -0)
(7.04671e-30 -6.23832e-14 -0)
(-2.33579e-30 -7.62439e-14 0)
(-9.72316e-32 -9.05498e-16 0)
(2.63934e-31 6.64977e-15 0)
(-7.17447e-32 -1.75494e-15 0)
(2.13937e-31 3.73753e-15 0)
(1.02871e-32 2.93403e-15 0)
(-7.94913e-31 -2.84917e-14 0)
(1.02586e-31 5.9051e-15 0)
(4.29224e-32 -1.37788e-15 -0)
(-2.89508e-25 -3.51507e-12 0)
(-1.20714e-25 6.9393e-12 -0)
(-6.74996e-27 -1.67732e-12 0)
(-2.4635e-28 2.75696e-13 -0)
(-3.35103e-29 -1.83016e-13 0)
(7.02603e-30 -4.76013e-14 -0)
(9.17964e-30 -5.95933e-14 -0)
(8.73947e-30 -9.32015e-14 -0)
(3.0209e-30 -8.58816e-14 -0)
(2.90914e-30 -6.04746e-14 -0)
(-3.36542e-31 -1.22513e-14 0)
(-4.27257e-30 -5.74207e-14 0)
(-3.362e-30 -5.64326e-14 0)
(-1.59351e-31 -1.64903e-15 0)
(9.45417e-31 1.24289e-14 0)
(-1.23263e-30 4.45698e-14 -0)
(1.18482e-31 -1.20187e-15 -0)
(1.02273e-30 -6.54024e-14 -0)
(-4.66802e-32 -3.49889e-15 0)
(6.32654e-32 3.26929e-15 0)
(-1.08302e-25 3.06209e-12 -0)
(-2.11339e-26 -3.18033e-12 0)
(-1.52537e-27 9.14475e-13 -0)
(-9.87147e-30 -4.6796e-14 0)
(-2.00125e-29 1.7272e-13 -0)
(-2.40558e-29 1.49418e-13 -0)
(-3.00528e-29 1.17949e-13 -0)
(-3.20734e-29 1.25149e-13 -0)
(-1.35139e-29 8.94795e-14 -0)
(-1.14966e-31 1.71909e-15 -0)
(1.52676e-30 1.48472e-14 0)
(3.99715e-30 7.17594e-14 0)
(-4.64105e-30 6.3872e-14 -0)
(2.02332e-31 -4.94498e-15 -0)
(-6.29567e-32 2.71225e-15 -0)
(-2.10373e-30 3.09194e-14 -0)
(1.80822e-31 -2.94709e-15 -0)
(-1.98651e-30 5.15065e-14 -0)
(-7.37261e-31 2.14823e-14 -0)
(4.49247e-31 2.54391e-14 0)
(-4.11437e-25 5.03982e-12 -0)
(-1.31205e-25 -7.53385e-12 0)
(-6.07021e-27 1.46968e-12 -0)
(-3.62328e-28 -4.41144e-13 0)
(-8.29112e-30 3.17702e-14 -0)
(3.7434e-30 -9.73167e-14 -0)
(5.20622e-30 -5.15693e-14 -0)
(3.88162e-30 -5.98335e-14 -0)
(1.36266e-30 -3.04696e-14 -0)
(1.0981e-30 -3.51639e-14 -0)
(-1.08534e-30 -3.02609e-14 0)
(4.15851e-33 1.25919e-14 0)
(-1.18877e-30 1.32007e-14 -0)
(4.70223e-32 -3.57103e-16 -0)
(4.89241e-31 -5.65714e-15 -0)
(4.65218e-30 -6.19418e-14 -0)
(5.85643e-32 -6.3898e-15 -0)
(-2.72322e-32 2.4298e-15 -0)
(8.87656e-31 -2.65263e-14 -0)
(5.46403e-31 -3.21509e-14 -0)
)
;

boundaryField
{
    movingWall
    {
        type            calculated;
        value           nonuniform List<vector> 
20
(
(0 9.35317e-12 -0)
(0 -8.94974e-12 -0)
(0 1.1265e-12 -0)
(0 -7.86614e-13 -0)
(0 -3.137e-13 -0)
(0 -4.15682e-13 -0)
(0 -2.63813e-13 -0)
(0 -2.72077e-13 -0)
(0 -1.36591e-13 -0)
(0 -1.85694e-13 -0)
(0 -9.19737e-14 -0)
(0 -1.65044e-13 -0)
(0 -1.64435e-13 -0)
(0 -8.91749e-14 -0)
(0 -5.00661e-14 -0)
(0 -9.65495e-14 -0)
(0 -6.3898e-15 -0)
(0 2.4298e-15 -0)
(0 -4.38302e-14 -0)
(0 -4.94547e-14 -0)
)
;
    }
    fixedWalls
    {
        type            calculated;
        value           nonuniform List<vector> 
60
(
(0 -4.45475e-11 -0)
(0 -1.07817e-11 -0)
(0 4.56789e-11 -0)
(0 -3.0668e-11 -0)
(0 2.29049e-12 -0)
(0 2.60985e-11 -0)
(0 -3.44862e-11 -0)
(0 1.10887e-11 -0)
(0 1.80005e-11 -0)
(0 -2.95116e-11 -0)
(0 2.72322e-11 -0)
(0 -1.46198e-11 -0)
(0 -6.19371e-12 -0)
(0 2.48789e-11 -0)
(0 -3.07548e-11 -0)
(0 2.11144e-11 -0)
(0 2.98278e-12 -0)
(0 -2.99632e-11 -0)
(0 1.43372e-11 -0)
(0 3.12725e-11 -0)
(0 -6.6238e-15 -0)
(0 -3.67498e-14 -0)
(0 -2.14886e-14 -0)
(0 -3.2676e-14 -0)
(0 -3.15834e-14 -0)
(0 9.04156e-15 -0)
(0 2.53021e-14 -0)
(0 -2.42535e-14 -0)
(0 7.89049e-15 -0)
(0 -5.01542e-15 -0)
(0 2.67342e-14 -0)
(0 2.51239e-14 -0)
(0 -2.02545e-14 -0)
(0 -5.86665e-14 -0)
(0 -5.07961e-14 -0)
(0 -8.09485e-15 -0)
(0 -1.24605e-14 -0)
(0 7.74057e-15 -0)
(0 3.41689e-14 -0)
(0 -3.3903e-14 -0)
(0 -1.41064e-11 -0)
(0 1.25459e-11 -0)
(0 -2.01822e-12 -0)
(0 6.75391e-13 -0)
(0 1.94212e-13 -0)
(0 1.91829e-13 -0)
(0 1.26688e-13 -0)
(0 5.63176e-14 -0)
(0 1.36589e-14 -0)
(0 -8.33107e-14 -0)
(0 4.34083e-16 -0)
(0 -8.30204e-14 -0)
(0 4.06867e-15 -0)
(0 -9.11448e-14 -0)
(0 -3.82591e-15 -0)
(0 8.30587e-15 -0)
(0 -1.66828e-13 -0)
(0 -1.29621e-14 -0)
(0 3.682e-14 -0)
(0 3.1319e-15 -0)
)
;
    }
    frontAndBack
    {
        type            empty;
    }
}


// ************************************************************************* //
