/*--------------------------------*- C++ -*----------------------------------*\
| =========                 |                                                 |
| \\      /  F ield         | OpenFOAM: The Open Source CFD Toolbox           |
|  \\    /   O peration     | Version:  2506                                  |
|   \\  /    A nd           | Website:  www.openfoam.com                      |
|    \\/     M anipulation  |                                                 |
\*---------------------------------------------------------------------------*/
FoamFile
{
    version     2.0;
    format      ascii;
    arch        "LSB;label=32;scalar=64";
    class       volScalarField;
    location    "6";
    object      Lambda2Field;
}
// * * * * * * * * * * * * * * * * * * * * * * * * * * * * * * * * * * * * * //

dimensions      [0 0 -2 0 0 0 0];

internalField   nonuniform List<scalar> 
400
(
8.23052e-24
4.17199e-24
2.50005e-25
1.54301e-26
9.48542e-27
0
9.91413e-28
4.119e-28
3.50587e-28
1.18431e-28
6.76173e-29
0
0
0
1.03702e-28
2.57946e-28
0
1.40596e-28
0
0
4.85461e-24
5.87686e-24
2.45409e-25
2.93874e-27
0
-5.88461e-28
0
0
0
0
2.16706e-28
0
3.28078e-28
7.69827e-29
0
1.30223e-28
2.00822e-28
1.99409e-29
0
1.10092e-28
3.87389e-23
1.34598e-23
7.26224e-26
5.00956e-26
7.34684e-28
0
4.85009e-29
-9.46873e-28
-5.37011e-29
2.2858e-28
1.64937e-28
-4.3678e-29
1.29386e-28
-5.10741e-29
-4.97826e-28
1.72968e-28
1.11174e-27
1.12746e-27
0
6.75004e-28
9.9966e-24
6.49491e-24
1.76388e-25
9.68548e-27
6.0091e-27
-2.65382e-27
-1.44917e-27
-4.44585e-28
7.61981e-28
3.92341e-29
0
0
4.97213e-28
0
-9.94308e-28
8.72258e-28
3.35672e-29
0
2.1043e-29
1.21635e-28
2.30733e-25
1.32766e-24
1.71701e-25
6.31912e-27
3.7917e-27
0
0
0
5.70747e-28
3.54573e-28
2.32412e-28
1.30294e-27
0
-1.51156e-27
-8.54799e-28
1.41677e-28
0
0
0
0
6.49367e-24
3.16451e-24
0
1.38821e-26
1.73853e-27
2.25002e-29
0
0
1.02171e-27
-1.97003e-28
-3.02786e-27
-1.17208e-27
3.40452e-28
1.94065e-28
0
3.04214e-28
6.14615e-28
-1.4855e-28
-9.48561e-29
0
0
1.35455e-24
-3.89887e-25
2.20395e-26
-7.43569e-27
2.46061e-27
-7.06484e-28
-1.34832e-27
0
4.89708e-28
1.31313e-28
7.34684e-28
2.26767e-27
1.97437e-29
-9.89185e-28
-8.19387e-28
0
4.38315e-28
3.50955e-30
0
0
0
0
6.61216e-27
7.34684e-28
0
2.59082e-29
0
7.65083e-28
-3.39323e-28
-1.13184e-27
-7.75671e-28
-5.54018e-28
1.40053e-28
3.67321e-28
0
1.54925e-28
1.16498e-28
0
1.51329e-28
0
4.50904e-25
0
9.21752e-27
-2.62321e-27
1.11083e-27
-4.98377e-30
-1.33577e-27
-4.46677e-28
-1.73955e-28
1.04633e-28
-6.98739e-28
0
1.59872e-28
0
0
-2.19036e-28
6.33107e-33
3.99847e-29
3.86808e-30
-2.36393e-24
-1.06871e-24
-2.55397e-25
-1.58319e-26
5.02293e-31
5.1399e-30
-9.84764e-28
0
1.5071e-28
0
6.89353e-28
0
-7.37105e-29
3.75743e-28
-5.81227e-28
0
0
0
9.8236e-29
0
0
-4.80843e-25
-4.97214e-26
-3.46827e-26
1.89911e-27
3.6398e-28
5.32979e-28
0
0
-4.09456e-28
4.35932e-28
-4.27786e-28
-1.88384e-28
-1.27102e-27
2.06713e-28
-9.95609e-28
0
3.13328e-29
0
1.22888e-28
0
1.33056e-24
0
2.95526e-26
0
2.76909e-28
0
1.01915e-28
5.41863e-28
1.89151e-27
1.56852e-27
0
-1.31818e-28
-1.17775e-27
1.20311e-27
1.37006e-27
-4.04561e-28
-5.24865e-28
1.83777e-28
2.47099e-29
9.88713e-25
1.31276e-24
1.83671e-26
0
0
0
4.00714e-28
0
0
-2.46797e-27
1.58211e-27
8.26724e-28
0
0
0
7.17179e-28
7.50908e-29
-2.77773e-28
7.34684e-28
4.38802e-28
0
2.93874e-25
-6.91886e-26
1.79229e-26
-7.92039e-27
0
-8.23302e-29
1.35696e-27
1.00613e-28
0
1.09372e-27
0
-4.44044e-28
0
7.36026e-28
3.62214e-28
-7.45548e-28
-5.67419e-28
0
7.38111e-31
1.48403e-24
1.61078e-24
-1.65247e-25
1.00813e-28
-4.44958e-27
0
-3.17255e-29
0
3.73287e-29
0
2.80145e-28
0
0
1.71631e-28
-2.61882e-28
1.27408e-29
-2.56852e-29
2.47184e-28
1.12733e-28
0
1.66423e-24
1.94986e-24
0
7.34684e-28
0
1.67908e-27
6.88445e-28
0
4.28432e-28
-2.5625e-28
1.21101e-28
0
-2.68064e-28
1.59927e-28
2.64677e-29
1.59845e-28
-5.60437e-29
2.07388e-28
0
0
1.88538e-24
1.4413e-24
1.20492e-25
2.83521e-27
0
0
-1.2922e-27
-1.39107e-27
-1.48431e-28
0
0
-1.04157e-27
1.9122e-29
0
0
2.11997e-32
0
-3.65543e-29
0
0
1.9946e-23
7.13753e-24
-1.82805e-26
4.17311e-26
-5.14892e-27
2.74145e-27
0
-6.94993e-28
0
0
4.65652e-28
0
2.03667e-28
0
0
0
0
-5.62554e-28
2.67205e-29
2.3825e-29
2.01245e-24
4.99536e-24
1.36784e-26
1.75633e-26
-3.06878e-27
-1.76372e-27
-1.00492e-27
1.4063e-27
2.05355e-27
6.88088e-28
3.32249e-28
-2.16666e-28
-2.99884e-28
5.21254e-28
2.64219e-28
-8.0875e-29
0
1.46565e-28
1.52406e-28
4.51565e-29
9.06583e-24
2.43298e-24
3.50849e-25
-1.03196e-26
4.661e-27
-9.03315e-28
1.40874e-27
7.26572e-28
0
0
0
3.13963e-29
2.64762e-28
0
0
0
4.97325e-29
2.47763e-29
1.56867e-29
0
)
;

boundaryField
{
    movingWall
    {
        type            calculated;
        value           nonuniform List<scalar> 
20
(
0
0
9.20311e-25
-4.67144e-26
3.43647e-26
-6.15877e-27
2.33437e-27
0
-1.28241e-28
-6.96849e-28
-7.44737e-29
2.23679e-27
3.0796e-27
0
0
4.79723e-29
1.34404e-29
2.00976e-29
2.57011e-29
0
)
;
    }
    fixedWalls
    {
        type            calculated;
        value           nonuniform List<scalar> 
60
(
6.46747e-23
8.52162e-23
1.9867e-22
9.59377e-23
1.77005e-23
3.326e-23
0
0
0
-2.94295e-23
-1.55773e-23
1.17555e-23
2.85261e-23
0
7.12935e-24
1.8972e-23
2.1158e-23
1.03721e-22
6.92618e-23
5.37314e-23
0
1.10092e-28
1.31817e-27
1.21635e-28
0
0
5.12633e-29
7.72916e-29
0
0
6.68255e-29
2.47099e-29
0
7.38111e-31
0
0
0
2.3825e-29
-1.78256e-28
0
0
0
7.96837e-25
0
3.62621e-26
-1.11936e-27
1.60577e-27
2.05835e-28
7.34684e-28
5.69417e-28
2.07601e-28
5.14915e-28
7.71118e-29
0
0
3.90997e-29
1.91991e-27
1.3675e-27
3.37018e-28
0
)
;
    }
    frontAndBack
    {
        type            empty;
    }
}


// ************************************************************************* //
