/*--------------------------------*- C++ -*----------------------------------*\
| =========                 |                                                 |
| \\      /  F ield         | OpenFOAM: The Open Source CFD Toolbox           |
|  \\    /   O peration     | Version:  2506                                  |
|   \\  /    A nd           | Website:  www.openfoam.com                      |
|    \\/     M anipulation  |                                                 |
\*---------------------------------------------------------------------------*/
FoamFile
{
    version     2.0;
    format      ascii;
    arch        "LSB;label=32;scalar=64";
    class       volScalarField;
    location    "6";
    object      magP;
}
// * * * * * * * * * * * * * * * * * * * * * * * * * * * * * * * * * * * * * //

dimensions      [0 2 -2 0 0 0 0];

internalField   nonuniform List<scalar> 
400
(
1.25558e-17
2.16134e-15
6.0698e-16
4.81462e-16
0
2.15934e-17
0
0
0
0
0
1.52569e-16
0
0
0
0
0
0
0
0
1.57443e-15
0
7.04201e-16
1.34539e-16
0
2.66812e-17
0
0
0
0
0
0
0
0
0
0
0
0
0
0
7.97897e-16
1.38988e-15
5.15773e-16
3.39082e-16
1.06006e-16
2.21164e-16
0
0
0
0
0
0
0
0
0
0
0
0
0
0
3.98566e-16
1.66179e-15
5.71383e-16
5.0728e-16
2.13673e-16
1.69044e-16
1.80391e-17
0
0
0
0
0
0
0
0
0
0
0
0
0
9.68201e-16
0
5.82656e-16
2.60165e-16
3.12084e-16
1.86535e-16
7.37453e-17
3.61994e-17
0
0
2.40576e-17
9.33008e-18
0
0
0
0
0
0
0
0
0
2.43535e-15
6.14451e-16
7.11695e-16
4.58878e-16
2.31896e-16
8.20194e-17
0
0
0
5.27611e-17
0
0
0
0
0
0
0
0
0
4.46008e-16
1.43e-15
6.47291e-16
6.38863e-16
4.10426e-16
2.49953e-16
8.59102e-17
0
0
6.13307e-17
1.77166e-16
0
0
0
0
0
0
0
0
0
1.2648e-15
0
4.68462e-16
4.02312e-16
3.68685e-16
3.29804e-16
2.83827e-16
0
0
0
0
0
0
3.83156e-17
0
0
0
0
0
0
3.48439e-16
2.67805e-15
5.05492e-16
5.52104e-16
1.51936e-16
1.83823e-16
8.23025e-17
0
0
0
0
0
0
0
0
0
0
0
0
0
5.58908e-16
2.31116e-16
6.39393e-16
3.4137e-16
1.39107e-16
0
0
0
0
0
0
0
0
0
1.59868e-17
0
0
0
0
0
6.04636e-16
0
5.20119e-16
1.46419e-16
0
0
0
0
2.79074e-17
0
0
0
3.97534e-17
5.76917e-17
1.28725e-17
0
0
0
0
0
3.84087e-16
2.64981e-15
1.71636e-16
3.00735e-16
0
0
0
0
0
0
0
0
1.88413e-16
3.08333e-16
0
0
0
0
0
0
1.06432e-15
0
2.38805e-16
0
0
0
0
0
1.87983e-16
0
0
2.04015e-16
2.43341e-16
3.10968e-16
0
0
0
0
0
0
4.59653e-16
1.77765e-15
1.79023e-16
1.77954e-16
0
0
0
0
8.0599e-17
1.23863e-16
7.87165e-17
2.01237e-16
2.26023e-16
1.07813e-16
0
0
0
0
0
7.92397e-17
2.34752e-16
0
1.30429e-16
0
0
0
4.6437e-17
1.30344e-16
2.65566e-16
3.40776e-16
2.06909e-17
1.26663e-17
2.03068e-16
1.65709e-16
0
0
0
0
1.03513e-16
2.44296e-16
2.46613e-16
0
6.72672e-17
0
0
0
4.05638e-17
2.76936e-16
3.46147e-16
3.43119e-16
2.08029e-16
1.43718e-16
9.19899e-17
8.93772e-17
0
0
0
0
9.19818e-18
2.77632e-16
0
1.76875e-15
0
3.26019e-18
1.07131e-16
1.52405e-16
3.03609e-16
4.65182e-16
3.78835e-16
3.17409e-16
4.90627e-16
3.32422e-16
6.23825e-18
0
0
0
0
1.95145e-17
0
3.06949e-16
5.44921e-16
0
0
0
2.47692e-16
2.79503e-16
4.37902e-16
4.40904e-16
3.4529e-16
2.54937e-16
4.54483e-16
2.99897e-16
0
0
0
0
1.99935e-17
3.43039e-17
0
3.76048e-16
4.93048e-16
0
0
3.56297e-17
1.9836e-16
2.56538e-16
4.02725e-16
4.11864e-16
3.41209e-16
3.58283e-16
3.42233e-16
2.91669e-16
6.63592e-17
0
0
0
1.01976e-16
7.82903e-17
1.25905e-16
2.90172e-16
0
1.42724e-15
4.57118e-17
3.46945e-16
1.4193e-16
1.53025e-16
3.33128e-16
4.43607e-16
3.1328e-16
4.27576e-16
3.38632e-16
2.46085e-16
1.07935e-16
1.13781e-17
0
0
1.06666e-16
2.89631e-17
1.74477e-16
3.6866e-16
)
;

boundaryField
{
    movingWall
    {
        type            calculated;
        value           nonuniform List<scalar> 
20
(
0
1.42724e-15
4.57118e-17
3.46945e-16
1.4193e-16
1.53025e-16
3.33128e-16
4.43607e-16
3.1328e-16
4.27576e-16
3.38632e-16
2.46085e-16
1.07935e-16
1.13781e-17
0
0
1.06666e-16
2.89631e-17
1.74477e-16
3.6866e-16
)
;
    }
    fixedWalls
    {
        type            calculated;
        value           nonuniform List<scalar> 
60
(
1.25558e-17
1.57443e-15
7.97897e-16
3.98566e-16
9.68201e-16
0
4.46008e-16
1.2648e-15
3.48439e-16
5.58908e-16
6.04636e-16
3.84087e-16
1.06432e-15
4.59653e-16
2.34752e-16
2.46613e-16
0
5.44921e-16
4.93048e-16
0
0
0
0
0
0
0
0
0
0
0
0
0
0
7.92397e-17
2.44296e-16
2.77632e-16
3.06949e-16
3.76048e-16
2.90172e-16
3.6866e-16
1.25558e-17
2.16134e-15
6.0698e-16
4.81462e-16
0
2.15934e-17
0
0
0
0
0
1.52569e-16
0
0
0
0
0
0
0
0
)
;
    }
    frontAndBack
    {
        type            empty;
    }
}


// ************************************************************************* //
