/*--------------------------------*- C++ -*----------------------------------*\
| =========                 |                                                 |
| \\      /  F ield         | OpenFOAM: The Open Source CFD Toolbox           |
|  \\    /   O peration     | Version:  2506                                  |
|   \\  /    A nd           | Website:  www.openfoam.com                      |
|    \\/     M anipulation  |                                                 |
\*---------------------------------------------------------------------------*/
FoamFile
{
    version     2.0;
    format      ascii;
    arch        "LSB;label=32;scalar=64";
    class       volScalarField;
    location    "6";
    object      magSqrP;
}
// * * * * * * * * * * * * * * * * * * * * * * * * * * * * * * * * * * * * * //

dimensions      [0 4 -4 0 0 0 0];

internalField   nonuniform List<scalar> 
400
(
1.57649e-34
4.67141e-30
3.68425e-31
2.31806e-31
0
4.66277e-34
0
0
0
0
0
2.32774e-32
0
0
0
0
0
0
0
0
2.47883e-30
0
4.95899e-31
1.81007e-32
0
7.11887e-34
0
0
0
0
0
0
0
0
0
0
0
0
0
0
6.36639e-31
1.93176e-30
2.66022e-31
1.14977e-31
1.12374e-32
4.89134e-32
0
0
0
0
0
0
0
0
0
0
0
0
0
0
1.58855e-31
2.76155e-30
3.26479e-31
2.57333e-31
4.5656e-32
2.85759e-32
3.25411e-34
0
0
0
0
0
0
0
0
0
0
0
0
0
9.37412e-31
0
3.39488e-31
6.76859e-32
9.73962e-32
3.47954e-32
5.43836e-33
1.3104e-33
0
0
5.78767e-34
8.70503e-35
0
0
0
0
0
0
0
0
0
5.93094e-30
3.7755e-31
5.0651e-31
2.10569e-31
5.37756e-32
6.72718e-33
0
0
0
2.78374e-33
0
0
0
0
0
0
0
0
0
1.98923e-31
2.04489e-30
4.18985e-31
4.08146e-31
1.6845e-31
6.24766e-32
7.38057e-33
0
0
3.76145e-33
3.13877e-32
0
0
0
0
0
0
0
0
0
1.59971e-30
0
2.19456e-31
1.61855e-31
1.35929e-31
1.08771e-31
8.0558e-32
0
0
0
0
0
0
1.46809e-33
0
0
0
0
0
0
1.2141e-31
7.17194e-30
2.55522e-31
3.04819e-31
2.30846e-32
3.37908e-32
6.7737e-33
0
0
0
0
0
0
0
0
0
0
0
0
0
3.12378e-31
5.34147e-32
4.08823e-31
1.16534e-31
1.93506e-32
0
0
0
0
0
0
0
0
0
2.55579e-34
0
0
0
0
0
3.65584e-31
0
2.70524e-31
2.14386e-32
0
0
0
0
7.78824e-34
0
0
0
1.58033e-33
3.32833e-33
1.657e-34
0
0
0
0
0
1.47523e-31
7.0215e-30
2.94588e-32
9.04418e-32
0
0
0
0
0
0
0
0
3.54995e-32
9.50692e-32
0
0
0
0
0
0
1.13279e-30
0
5.70278e-32
0
0
0
0
0
3.53375e-32
0
0
4.1622e-32
5.92151e-32
9.67008e-32
0
0
0
0
0
0
2.11281e-31
3.16005e-30
3.20491e-32
3.16675e-32
0
0
0
0
6.49619e-33
1.5342e-32
6.19628e-33
4.04963e-32
5.10864e-32
1.16237e-32
0
0
0
0
0
6.27893e-33
5.51084e-32
0
1.70118e-32
0
0
0
2.1564e-33
1.69894e-32
7.05253e-32
1.16129e-31
4.28115e-34
1.60435e-34
4.12368e-32
2.74593e-32
0
0
0
0
1.0715e-32
5.96806e-32
6.08179e-32
0
4.52488e-33
0
0
0
1.64542e-33
7.66938e-32
1.19818e-31
1.17731e-31
4.32762e-32
2.06548e-32
8.46214e-33
7.98828e-33
0
0
0
0
8.46065e-35
7.70796e-32
0
3.12848e-30
0
1.06288e-35
1.1477e-32
2.32273e-32
9.21787e-32
2.16395e-31
1.43516e-31
1.00748e-31
2.40715e-31
1.10505e-31
3.89158e-35
0
0
0
0
3.80817e-34
0
9.4218e-32
2.96939e-31
0
0
0
6.13512e-32
7.81219e-32
1.91758e-31
1.94396e-31
1.19225e-31
6.49928e-32
2.06555e-31
8.99381e-32
0
0
0
0
3.99738e-34
1.17676e-33
0
1.41412e-31
2.43096e-31
0
0
1.26948e-33
3.93467e-32
6.58118e-32
1.62187e-31
1.69632e-31
1.16424e-31
1.28366e-31
1.17124e-31
8.5071e-32
4.40354e-33
0
0
0
1.0399e-32
6.12937e-33
1.5852e-32
8.41996e-32
0
2.03703e-30
2.08957e-33
1.20371e-31
2.0144e-32
2.34165e-32
1.10974e-31
1.96787e-31
9.81445e-32
1.82822e-31
1.14671e-31
6.05576e-32
1.16499e-32
1.2946e-34
0
0
1.13775e-32
8.38863e-34
3.04421e-32
1.3591e-31
)
;

boundaryField
{
    movingWall
    {
        type            calculated;
        value           nonuniform List<scalar> 
20
(
0
2.03703e-30
2.08957e-33
1.20371e-31
2.0144e-32
2.34165e-32
1.10974e-31
1.96787e-31
9.81445e-32
1.82822e-31
1.14671e-31
6.05576e-32
1.16499e-32
1.2946e-34
0
0
1.13775e-32
8.38863e-34
3.04421e-32
1.3591e-31
)
;
    }
    fixedWalls
    {
        type            calculated;
        value           nonuniform List<scalar> 
60
(
1.57649e-34
2.47883e-30
6.36639e-31
1.58855e-31
9.37412e-31
0
1.98923e-31
1.59971e-30
1.2141e-31
3.12378e-31
3.65584e-31
1.47523e-31
1.13279e-30
2.11281e-31
5.51084e-32
6.08179e-32
0
2.96939e-31
2.43096e-31
0
0
0
0
0
0
0
0
0
0
0
0
0
0
6.27893e-33
5.96806e-32
7.70796e-32
9.4218e-32
1.41412e-31
8.41996e-32
1.3591e-31
1.57649e-34
4.67141e-30
3.68425e-31
2.31806e-31
0
4.66277e-34
0
0
0
0
0
2.32774e-32
0
0
0
0
0
0
0
0
)
;
    }
    frontAndBack
    {
        type            empty;
    }
}


// ************************************************************************* //
