/*--------------------------------*- C++ -*----------------------------------*\
| =========                 |                                                 |
| \\      /  F ield         | OpenFOAM: The Open Source CFD Toolbox           |
|  \\    /   O peration     | Version:  2506                                  |
|   \\  /    A nd           | Website:  www.openfoam.com                      |
|    \\/     M anipulation  |                                                 |
\*---------------------------------------------------------------------------*/
FoamFile
{
    version     2.0;
    format      ascii;
    arch        "LSB;label=32;scalar=64";
    class       volVectorField;
    location    "6";
    object      momentum1:momentum;
}
// * * * * * * * * * * * * * * * * * * * * * * * * * * * * * * * * * * * * * //

dimensions      [1 1 -1 0 0 0 0];

internalField   nonuniform List<vector> 
400
(
(-2.5e-07 2.83674e-20 0)
(-2.5e-07 -5.9799e-21 0)
(-2.5e-07 1.44344e-21 0)
(-2.5e-07 -2.68224e-22 0)
(-2.5e-07 8.80285e-23 0)
(-2.5e-07 2.34015e-23 0)
(-2.5e-07 5.25446e-23 0)
(-2.5e-07 3.97474e-23 0)
(-2.5e-07 2.2773e-23 0)
(-2.5e-07 5.60022e-24 0)
(-2.5e-07 9.00524e-24 0)
(-2.5e-07 4.51501e-24 0)
(-2.5e-07 -5.48833e-24 0)
(-2.5e-07 -5.65667e-24 0)
(-2.5e-07 3.29089e-25 0)
(-2.5e-07 3.90811e-24 0)
(-2.5e-07 -2.04356e-23 0)
(-2.5e-07 -2.31123e-23 0)
(-2.5e-07 1.19696e-23 0)
(-2.5e-07 -4.13987e-24 0)
(-2.5e-07 7.39928e-21 0)
(-2.5e-07 -1.56343e-21 0)
(-2.5e-07 4.38294e-22 0)
(-2.5e-07 -7.33972e-23 0)
(-2.5e-07 -1.02761e-23 0)
(-2.5e-07 -2.70057e-23 0)
(-2.5e-07 1.05509e-23 0)
(-2.5e-07 3.29753e-23 0)
(-2.5e-07 4.43468e-23 0)
(-2.5e-07 2.16063e-23 0)
(-2.5e-07 1.32691e-23 0)
(-2.5e-07 1.61867e-24 0)
(-2.5e-07 -2.19366e-23 0)
(-2.5e-07 -1.35113e-23 0)
(-2.5e-07 1.64107e-23 0)
(-2.5e-07 3.62436e-23 0)
(-2.5e-07 1.04052e-23 0)
(-2.5e-07 -6.53099e-24 0)
(-2.5e-07 -5.61264e-24 0)
(-2.5e-07 -2.29686e-23 0)
(-2.5e-07 -3.10396e-20 0)
(-2.5e-07 6.75582e-21 0)
(-2.5e-07 -1.61208e-21 0)
(-2.5e-07 3.28635e-22 0)
(-2.5e-07 -9.45033e-23 0)
(-2.5e-07 -1.78147e-25 0)
(-2.5e-07 -1.91426e-23 0)
(-2.5e-07 -4.65157e-24 0)
(-2.5e-07 1.7628e-23 0)
(-2.5e-07 1.35274e-23 0)
(-2.5e-07 7.0866e-24 0)
(-2.5e-07 8.45643e-24 0)
(-2.5e-07 9.25777e-24 0)
(-2.5e-07 1.62783e-23 0)
(-2.5e-07 3.09458e-23 0)
(-2.5e-07 3.42383e-23 0)
(-2.5e-07 1.49923e-23 0)
(-2.5e-07 -1.19485e-23 0)
(-2.5e-07 -3.17915e-23 0)
(-2.5e-07 -3.0371e-23 0)
(-2.5e-07 1.99806e-20 0)
(-2.5e-07 -4.30112e-21 0)
(-2.5e-07 9.8839e-22 0)
(-2.5e-07 -2.0442e-22 0)
(-2.5e-07 9.50621e-23 0)
(-2.5e-07 3.88192e-23 0)
(-2.5e-07 1.29112e-23 0)
(-2.5e-07 -6.48433e-24 0)
(-2.5e-07 -8.53317e-25 0)
(-2.5e-07 1.36375e-23 0)
(-2.5e-07 5.13597e-26 0)
(-2.5e-07 6.22961e-24 0)
(-2.5e-07 2.70405e-23 0)
(-2.5e-07 2.04066e-23 0)
(-2.5e-07 -6.81949e-24 0)
(-2.5e-07 -2.69769e-23 0)
(-2.5e-07 -1.58416e-23 0)
(-2.5e-07 -3.31062e-23 0)
(-2.5e-07 -3.61974e-23 0)
(-2.5e-07 -2.04225e-23 0)
(-2.5e-07 -1.44066e-22 0)
(-2.5e-07 -8.9486e-23 0)
(-2.5e-07 3.32951e-23 0)
(-2.5e-07 -1.57276e-23 0)
(-2.5e-07 6.26708e-24 0)
(-2.5e-07 1.04965e-23 0)
(-2.5e-07 -6.80064e-24 0)
(-2.5e-07 -9.06762e-24 0)
(-2.5e-07 -8.29218e-24 0)
(-2.5e-07 1.72534e-23 0)
(-2.5e-07 7.77883e-24 0)
(-2.5e-07 2.48848e-23 0)
(-2.5e-07 2.42764e-23 0)
(-2.5e-07 -3.34785e-24 0)
(-2.5e-07 -2.75185e-23 0)
(-2.5e-07 -4.36268e-23 0)
(-2.5e-07 -2.31627e-23 0)
(-2.5e-07 -1.70395e-23 0)
(-2.5e-07 -2.03233e-23 0)
(-2.5e-07 -2.79899e-24 0)
(-2.5e-07 -1.7057e-20 0)
(-2.5e-07 3.63115e-21 0)
(-2.5e-07 -8.56769e-22 0)
(-2.5e-07 1.58351e-22 0)
(-2.5e-07 -5.82058e-23 0)
(-2.5e-07 -2e-24 0)
(-2.5e-07 -5.01378e-24 0)
(-2.5e-07 -1.41926e-24 0)
(-2.5e-07 -2.24619e-23 0)
(-2.5e-07 -1.99343e-23 0)
(-2.5e-07 2.05046e-23 0)
(-2.5e-07 6.6824e-23 0)
(-2.5e-07 6.44715e-23 0)
(-2.5e-07 8.65777e-24 0)
(-2.5e-07 -1.76051e-23 0)
(-2.5e-07 -2.69108e-23 0)
(-2.5e-07 -3.4853e-23 0)
(-2.5e-07 -1.65372e-23 0)
(-2.5e-07 7.492e-24 0)
(-2.5e-07 5.65098e-24 0)
(-2.5e-07 2.13167e-20 0)
(-2.5e-07 -4.29913e-21 0)
(-2.5e-07 1.04754e-21 0)
(-2.5e-07 -1.96421e-22 0)
(-2.5e-07 6.09549e-23 0)
(-2.5e-07 -1.36211e-24 0)
(-2.5e-07 5.93805e-24 0)
(-2.5e-07 3.18689e-23 0)
(-2.5e-07 5.3969e-23 0)
(-2.5e-07 4.54303e-23 0)
(-2.5e-07 5.09931e-23 0)
(-2.5e-07 1.24195e-23 0)
(-2.5e-07 -2.18519e-23 0)
(-2.5e-07 -3.81747e-23 0)
(-2.5e-07 -2.36729e-23 0)
(-2.5e-07 1.17817e-23 0)
(-2.5e-07 2.61877e-23 0)
(-2.5e-07 2.7017e-23 0)
(-2.5e-07 9.85419e-24 0)
(-2.5e-07 -1.12683e-24 0)
(-2.5e-07 -6.59163e-21 0)
(-2.5e-07 1.37446e-21 0)
(-2.5e-07 -2.7084e-22 0)
(-2.5e-07 9.47913e-23 0)
(-2.5e-07 2.17802e-23 0)
(-2.5e-07 1.9598e-23 0)
(-2.5e-07 1.71475e-23 0)
(-2.5e-07 2.77838e-23 0)
(-2.5e-07 4.13864e-23 0)
(-2.5e-07 2.96209e-23 0)
(-2.5e-07 -8.1434e-24 0)
(-2.5e-07 -6.42403e-23 0)
(-2.5e-07 -5.45786e-23 0)
(-2.5e-07 -2.16075e-24 0)
(-2.5e-07 6.64246e-24 0)
(-2.5e-07 1.35392e-23 0)
(-2.5e-07 1.17044e-23 0)
(-2.5e-07 6.3945e-24 0)
(-2.5e-07 1.21754e-23 0)
(-2.5e-07 1.78222e-24 0)
(-2.5e-07 -1.11317e-20 0)
(-2.5e-07 2.28727e-21 0)
(-2.5e-07 -5.21488e-22 0)
(-2.5e-07 1.42128e-22 0)
(-2.5e-07 -6.95101e-24 0)
(-2.5e-07 1.38782e-23 0)
(-2.5e-07 1.86631e-23 0)
(-2.5e-07 6.39465e-24 0)
(-2.5e-07 -1.42753e-23 0)
(-2.5e-07 -1.60339e-23 0)
(-2.5e-07 -3.86443e-23 0)
(-2.5e-07 -2.56846e-23 0)
(-2.5e-07 5.42562e-24 0)
(-2.5e-07 3.27044e-23 0)
(-2.5e-07 2.42411e-23 0)
(-2.5e-07 1.35159e-23 0)
(-2.5e-07 -1.00855e-24 0)
(-2.5e-07 1.24362e-24 0)
(-2.5e-07 1.89123e-23 0)
(-2.5e-07 4.93155e-24 0)
(-2.5e-07 1.76993e-20 0)
(-2.5e-07 -3.63741e-21 0)
(-2.5e-07 8.32298e-22 0)
(-2.5e-07 -1.45229e-22 0)
(-2.5e-07 6.83e-23 0)
(-2.5e-07 4.97425e-23 0)
(-2.5e-07 4.85014e-23 0)
(-2.5e-07 3.71335e-24 0)
(-2.5e-07 -1.59507e-23 0)
(-2.5e-07 5.87036e-24 0)
(-2.5e-07 -1.7688e-24 0)
(-2.5e-07 -2.59051e-23 0)
(-2.5e-07 -3.39552e-23 0)
(-2.5e-07 -3.37708e-23 0)
(-2.5e-07 7.00967e-25 0)
(-2.5e-07 2.69148e-23 0)
(-2.5e-07 2.88575e-23 0)
(-2.5e-07 6.19558e-24 0)
(-2.5e-07 -1.03029e-23 0)
(-2.5e-07 -3.13464e-24 0)
(-2.5e-07 -1.63425e-20 0)
(-2.5e-07 3.43671e-21 0)
(-2.5e-07 -7.66934e-22 0)
(-2.5e-07 1.94708e-22 0)
(-2.5e-07 -5.1792e-24 0)
(-2.5e-07 1.95461e-23 0)
(-2.5e-07 9.53441e-24 0)
(-2.5e-07 6.50261e-24 0)
(-2.5e-07 1.39341e-23 0)
(-2.5e-07 2.48536e-23 0)
(-2.5e-07 2.69945e-23 0)
(-2.5e-07 -1.5354e-23 0)
(-2.5e-07 -1.91776e-23 0)
(-2.5e-07 1.54464e-23 0)
(-2.5e-07 4.2487e-23 0)
(-2.5e-07 1.65528e-23 0)
(-2.5e-07 -6.16122e-24 0)
(-2.5e-07 -1.18783e-23 0)
(-2.5e-07 -5.86618e-24 0)
(-2.5e-07 -2.31777e-25 0)
(-2.5e-07 8.76471e-21 0)
(-2.5e-07 -1.8133e-21 0)
(-2.5e-07 4.7367e-22 0)
(-2.5e-07 -7.23218e-23 0)
(-2.5e-07 1.73828e-23 0)
(-2.5e-07 -1.55947e-23 0)
(-2.5e-07 8.96145e-24 0)
(-2.5e-07 9.35734e-24 0)
(-2.5e-07 7.82642e-24 0)
(-2.5e-07 -3.92417e-24 0)
(-2.5e-07 -1.04488e-23 0)
(-2.5e-07 -4.57247e-24 0)
(-2.5e-07 -3.79363e-24 0)
(-2.5e-07 2.20678e-23 0)
(-2.5e-07 3.44947e-23 0)
(-2.5e-07 7.66624e-24 0)
(-2.5e-07 -1.91737e-24 0)
(-2.5e-07 2.01895e-23 0)
(-2.5e-07 2.23227e-23 0)
(-2.5e-07 1.57024e-23 0)
(-2.5e-07 3.56614e-21 0)
(-2.5e-07 -6.66523e-22 0)
(-2.5e-07 1.96982e-22 0)
(-2.5e-07 -5.23287e-23 0)
(-2.5e-07 -5.36713e-24 0)
(-2.5e-07 2.38739e-23 0)
(-2.5e-07 3.81507e-23 0)
(-2.5e-07 3.01681e-23 0)
(-2.5e-07 -1.22704e-23 0)
(-2.5e-07 -6.51843e-23 0)
(-2.5e-07 -7.1349e-23 0)
(-2.5e-07 -2.87033e-23 0)
(-2.5e-07 3.1992e-24 0)
(-2.5e-07 -5.11097e-24 0)
(-2.5e-07 -3.23729e-23 0)
(-2.5e-07 -1.75173e-23 0)
(-2.5e-07 -1.03236e-23 0)
(-2.5e-07 -1.40543e-23 0)
(-2.5e-07 -2.91147e-23 0)
(-2.5e-07 -1.2659e-23 0)
(-2.5e-07 -1.50072e-20 0)
(-2.5e-07 3.17947e-21 0)
(-2.5e-07 -7.22674e-22 0)
(-2.5e-07 1.56163e-22 0)
(-2.5e-07 -3.72753e-23 0)
(-2.5e-07 -4.89204e-24 0)
(-2.5e-07 -4.10831e-23 0)
(-2.5e-07 -2.37311e-23 0)
(-2.5e-07 -1.45234e-23 0)
(-2.5e-07 -2.69432e-23 0)
(-2.5e-07 1.97756e-25 0)
(-2.5e-07 6.17193e-24 0)
(-2.5e-07 -9.50876e-24 0)
(-2.5e-07 -1.76985e-23 0)
(-2.5e-07 -1.36618e-23 0)
(-2.5e-07 9.72212e-24 0)
(-2.5e-07 2.43712e-24 0)
(-2.5e-07 -2.54605e-23 0)
(-2.5e-07 -5.12709e-23 0)
(-2.5e-07 -3.66666e-23 0)
(-2.5e-07 1.93573e-20 0)
(-2.5e-07 -4.15345e-21 0)
(-2.5e-07 9.66337e-22 0)
(-2.5e-07 -1.90638e-22 0)
(-2.5e-07 6.58038e-23 0)
(-2.5e-07 1.9118e-23 0)
(-2.5e-07 -5.1786e-24 0)
(-2.5e-07 -5.15708e-23 0)
(-2.5e-07 -4.13649e-23 0)
(-2.5e-07 -1.48207e-23 0)
(-2.5e-07 -7.28145e-25 0)
(-2.5e-07 -9.06967e-24 0)
(-2.5e-07 -1.82432e-23 0)
(-2.5e-07 -2.16929e-23 0)
(-2.5e-07 -2.64133e-24 0)
(-2.5e-07 -8.45999e-24 0)
(-2.5e-07 9.10552e-26 0)
(-2.5e-07 -4.40909e-24 0)
(-2.5e-07 -7.02668e-24 0)
(-2.5e-07 -1.48069e-23 0)
(-2.5e-07 -1.33998e-20 0)
(-2.5e-07 2.867e-21 0)
(-2.5e-07 -6.52818e-22 0)
(-2.5e-07 1.31062e-22 0)
(-2.5e-07 -6.21222e-23 0)
(-2.5e-07 -2.58398e-23 0)
(-2.5e-07 -2.77338e-23 0)
(-2.5e-07 -3.91168e-23 0)
(-2.5e-07 -2.97977e-23 0)
(-2.5e-07 -1.93209e-23 0)
(-2.5e-07 -4.16461e-23 0)
(-2.5e-07 -1.23092e-23 0)
(-2.5e-07 2.58261e-23 0)
(-2.5e-07 1.50535e-23 0)
(-2.5e-07 -1.14664e-24 0)
(-2.5e-07 -6.55006e-24 0)
(-2.5e-07 -8.23844e-24 0)
(-2.5e-07 -1.37183e-24 0)
(-2.5e-07 8.97721e-24 0)
(-2.5e-07 -5.05928e-24 0)
(-2.5e-07 -2.98232e-21 0)
(-2.5e-07 7.58217e-22 0)
(-2.5e-07 -1.62536e-22 0)
(-2.5e-07 2.96727e-23 0)
(-2.5e-07 -6.5666e-23 0)
(-2.5e-07 -8.33235e-23 0)
(-2.5e-07 -7.07742e-23 0)
(-2.5e-07 -2.28743e-23 0)
(-2.5e-07 -4.80968e-24 0)
(-2.5e-07 -1.27739e-23 0)
(-2.5e-07 -2.82396e-23 0)
(-2.5e-07 7.65894e-24 0)
(-2.5e-07 2.68448e-23 0)
(-2.5e-07 9.92268e-24 0)
(-2.5e-07 1.02204e-23 0)
(-2.5e-07 1.431e-23 0)
(-2.5e-07 8.76529e-25 0)
(-2.5e-07 6.97496e-24 0)
(-2.5e-07 4.34309e-24 0)
(-2.5e-07 -7.78778e-24 0)
(-2.5e-07 2.05905e-20 0)
(-2.5e-07 -4.34892e-21 0)
(-2.5e-07 1.00607e-21 0)
(-2.5e-07 -2.23389e-22 0)
(-2.5e-07 4.57752e-23 0)
(-2.5e-07 -3.69004e-23 0)
(-2.5e-07 -3.85095e-23 0)
(-2.5e-07 -2.34424e-23 0)
(-2.5e-07 -8.79378e-24 0)
(-2.5e-07 -1.20263e-23 0)
(-2.5e-07 6.86746e-24 0)
(-2.5e-07 1.86021e-23 0)
(-2.5e-07 1.48939e-23 0)
(-2.5e-07 2.41582e-23 0)
(-2.5e-07 1.90165e-23 0)
(-2.5e-07 -6.91406e-24 0)
(-2.5e-07 -2.46453e-23 0)
(-2.5e-07 -3.90938e-24 0)
(-2.5e-07 3.33535e-24 0)
(-2.5e-07 4.83786e-24 0)
(-2.5e-07 -8.84218e-21 0)
(-2.5e-07 1.6613e-21 0)
(-2.5e-07 -4.17007e-22 0)
(-2.5e-07 5.27367e-23 0)
(-2.5e-07 -2.89668e-23 0)
(-2.5e-07 -4.02492e-23 0)
(-2.5e-07 -6.36988e-23 0)
(-2.5e-07 -6.40707e-23 0)
(-2.5e-07 -3.77571e-23 0)
(-2.5e-07 -1.6719e-23 0)
(-2.5e-07 2.57078e-23 0)
(-2.5e-07 1.39255e-23 0)
(-2.5e-07 -1.81654e-23 0)
(-2.5e-07 -1.02292e-23 0)
(-2.5e-07 -5.803e-24 0)
(-2.5e-07 -1.70098e-23 0)
(-2.5e-07 -1.5339e-23 0)
(-2.5e-07 -9.64205e-24 0)
(-2.5e-07 -8.57988e-24 0)
(-2.5e-07 4.41493e-24 0)
(-2.5e-07 -2.04093e-20 0)
(-2.5e-07 4.35386e-21 0)
(-2.5e-07 -1.03258e-21 0)
(-2.5e-07 2.05334e-22 0)
(-2.5e-07 -6.52428e-23 0)
(-2.5e-07 -9.61653e-24 0)
(-2.5e-07 -2.52389e-23 0)
(-2.5e-07 -1.62184e-23 0)
(-2.5e-07 -1.11805e-23 0)
(-2.5e-07 -7.80703e-24 0)
(-2.5e-07 8.96653e-24 0)
(-2.5e-07 8.25629e-26 0)
(-2.5e-07 -2.25133e-23 0)
(-2.5e-07 -3.29193e-23 0)
(-2.5e-07 -2.16205e-23 0)
(-2.5e-07 -1.87764e-23 0)
(-2.5e-07 -2.29132e-24 0)
(-2.5e-07 -2.8019e-24 0)
(-2.5e-07 -8.36581e-24 0)
(-2.5e-07 -4.24874e-24 0)
)
;

boundaryField
{
    movingWall
    {
        type            calculated;
        value           uniform (0 0 0);
    }
    fixedWalls
    {
        type            calculated;
        value           uniform (0 0 0);
    }
    frontAndBack
    {
        type            empty;
    }
}


// ************************************************************************* //
