/*--------------------------------*- C++ -*----------------------------------*\
| =========                 |                                                 |
| \\      /  F ield         | OpenFOAM: The Open Source CFD Toolbox           |
|  \\    /   O peration     | Version:  2506                                  |
|   \\  /    A nd           | Website:  www.openfoam.com                      |
|    \\/     M anipulation  |                                                 |
\*---------------------------------------------------------------------------*/
FoamFile
{
    version     2.0;
    format      ascii;
    arch        "LSB;label=32;scalar=64";
    class       volScalarField;
    location    "6";
    object      norm_k_field;
}
// * * * * * * * * * * * * * * * * * * * * * * * * * * * * * * * * * * * * * //

dimensions      [0 0 0 0 0 0 0];

internalField   nonuniform List<scalar> 
400
(
8.58975e+09
2.75123e+09
5.41238e+09
5.87094e+09
8.69757e+09
8.51372e+09
8.69755e+09
8.69755e+09
8.69754e+09
8.69754e+09
8.69754e+09
7.54622e+09
8.69753e+09
8.69753e+09
8.69753e+09
8.69753e+09
8.69753e+09
8.69753e+09
8.69753e+09
8.69753e+09
3.55003e+09
9.13934e+09
5.36243e+09
8.05475e+09
9.13802e+09
8.9003e+09
9.13743e+09
9.13721e+09
9.13692e+09
9.13673e+09
9.13651e+09
9.13634e+09
9.13617e+09
9.13604e+09
9.13592e+09
9.13584e+09
9.13576e+09
9.13572e+09
9.13569e+09
9.13568e+09
5.43159e+09
4.08616e+09
6.44203e+09
7.29185e+09
8.82807e+09
7.99532e+09
9.76323e+09
9.76292e+09
9.76266e+09
9.76236e+09
9.76218e+09
9.76192e+09
9.7618e+09
9.76158e+09
9.7615e+09
9.76135e+09
9.76131e+09
9.76123e+09
9.76121e+09
9.7612e+09
7.39075e+09
3.88327e+09
6.57739e+09
6.85691e+09
8.51524e+09
8.84005e+09
1.01508e+10
1.03337e+10
1.03333e+10
1.0333e+10
1.03328e+10
1.03325e+10
1.03323e+10
1.03322e+10
1.0332e+10
1.03319e+10
1.03318e+10
1.03318e+10
1.03317e+10
1.03317e+10
5.46306e+09
1.07524e+10
6.79332e+09
8.53154e+09
8.19347e+09
9.06016e+09
1.00114e+10
1.03739e+10
1.0749e+10
1.07487e+10
1.04959e+10
1.06488e+10
1.07479e+10
1.07478e+10
1.07476e+10
1.07475e+10
1.07474e+10
1.07473e+10
1.07473e+10
1.07473e+10
1.10191e+10
3.20755e+09
6.82467e+09
6.43673e+09
7.55175e+09
8.94289e+09
1.01812e+10
1.10159e+10
1.10155e+10
1.10152e+10
1.04628e+10
1.10146e+10
1.10144e+10
1.10142e+10
1.1014e+10
1.10139e+10
1.10138e+10
1.10137e+10
1.10137e+10
1.10136e+10
7.73134e+09
4.60066e+09
6.78602e+09
6.82071e+09
7.92495e+09
8.94207e+09
1.02925e+10
1.11763e+10
1.11759e+10
1.05298e+10
9.49339e+09
1.1175e+10
1.11748e+10
1.11745e+10
1.11744e+10
1.11742e+10
1.11741e+10
1.11741e+10
1.1174e+10
1.1174e+10
4.97882e+09
1.1276e+10
7.67814e+09
8.04e+09
8.23709e+09
8.47761e+09
8.78081e+09
1.12727e+10
1.12723e+10
1.12719e+10
1.12716e+10
1.12714e+10
1.12711e+10
1.0855e+10
1.12707e+10
1.12706e+10
1.12705e+10
1.12704e+10
1.12704e+10
1.12703e+10
8.40816e+09
3.08259e+09
7.5303e+09
7.30395e+09
9.84066e+09
9.57525e+09
1.04729e+10
1.13345e+10
1.13341e+10
1.13337e+10
1.13334e+10
1.13331e+10
1.13329e+10
1.13327e+10
1.13325e+10
1.13324e+10
1.13323e+10
1.13322e+10
1.13322e+10
1.13321e+10
7.30189e+09
9.24606e+09
6.94277e+09
8.48501e+09
9.99104e+09
1.13805e+10
1.13799e+10
1.13796e+10
1.13791e+10
1.13788e+10
1.13785e+10
1.13782e+10
1.1378e+10
1.13777e+10
1.11985e+10
1.13774e+10
1.13773e+10
1.13772e+10
1.13772e+10
1.13772e+10
7.11765e+09
1.14212e+10
7.51268e+09
9.96128e+09
1.14191e+10
1.14187e+10
1.14182e+10
1.14178e+10
1.11074e+10
1.1417e+10
1.14167e+10
1.14164e+10
1.09797e+10
1.07933e+10
1.12707e+10
1.14156e+10
1.14155e+10
1.14154e+10
1.14154e+10
1.14154e+10
8.27844e+09
3.13936e+09
9.77862e+09
8.80781e+09
1.1456e+10
1.14555e+10
1.1455e+10
1.14546e+10
1.14542e+10
1.14538e+10
1.14536e+10
1.14532e+10
9.63725e+09
8.75368e+09
1.14526e+10
1.14524e+10
1.14524e+10
1.14523e+10
1.14522e+10
1.14522e+10
5.56921e+09
1.14966e+10
9.27961e+09
1.14952e+10
1.14945e+10
1.14941e+10
1.14936e+10
1.14932e+10
9.67417e+09
1.14924e+10
1.14921e+10
9.54456e+09
9.24245e+09
8.76552e+09
1.14911e+10
1.1491e+10
1.14909e+10
1.14908e+10
1.14908e+10
1.14907e+10
7.90526e+09
4.1542e+09
9.78595e+09
9.79451e+09
1.15368e+10
1.15364e+10
1.15358e+10
1.15354e+10
1.06746e+10
1.02634e+10
1.06926e+10
9.60179e+09
9.40748e+09
1.04111e+10
1.15334e+10
1.15332e+10
1.15331e+10
1.1533e+10
1.1533e+10
1.06862e+10
9.38344e+09
1.15862e+10
1.02484e+10
1.15847e+10
1.1584e+10
1.15836e+10
1.10691e+10
1.0247e+10
9.15186e+09
8.63817e+09
1.13468e+10
1.14364e+10
9.62627e+09
9.93451e+09
1.15806e+10
1.15804e+10
1.15804e+10
1.15803e+10
1.0494e+10
9.30663e+09
9.33641e+09
1.16389e+10
1.09043e+10
1.16374e+10
1.16367e+10
1.16363e+10
1.11821e+10
9.1119e+09
8.64308e+09
8.66233e+09
9.63069e+09
1.0172e+10
1.06536e+10
1.0679e+10
1.16332e+10
1.16331e+10
1.1633e+10
1.16329e+10
1.15268e+10
9.10498e+09
1.16954e+10
4.22406e+09
1.16944e+10
1.16559e+10
1.05617e+10
1.01464e+10
8.9691e+09
7.97975e+09
8.47916e+09
8.87424e+09
7.84277e+09
8.77377e+09
1.16176e+10
1.16899e+10
1.16897e+10
1.16895e+10
1.16894e+10
1.14656e+10
1.16893e+10
8.94394e+09
7.60619e+09
1.1751e+10
1.17498e+10
1.17495e+10
9.41636e+09
9.18195e+09
8.17004e+09
8.15277e+09
8.73186e+09
9.36026e+09
8.07585e+09
9.03601e+09
1.17456e+10
1.17454e+10
1.17452e+10
1.1745e+10
1.15147e+10
1.13553e+10
1.17448e+10
8.53516e+09
7.90122e+09
1.17969e+10
1.17958e+10
1.13896e+10
9.84241e+09
9.38636e+09
8.40777e+09
8.35304e+09
8.79278e+09
8.68196e+09
8.78555e+09
9.1292e+09
1.10579e+10
1.17914e+10
1.17913e+10
1.17911e+10
1.06999e+10
1.09348e+10
1.04724e+10
9.13899e+09
1.18175e+10
4.86868e+09
1.13009e+10
8.77353e+09
1.03487e+10
1.02491e+10
8.86444e+09
8.18604e+09
8.9984e+09
8.27796e+09
8.82798e+09
9.48363e+09
1.06662e+10
1.16845e+10
1.18174e+10
1.18174e+10
1.06784e+10
1.14848e+10
1.00618e+10
8.63429e+09
)
;

boundaryField
{
    movingWall
    {
        type            calculated;
        value           nonuniform List<scalar> 
20
(
1.18175e+10
4.86868e+09
1.13009e+10
8.77353e+09
1.03487e+10
1.02491e+10
8.86444e+09
8.18604e+09
8.9984e+09
8.27796e+09
8.82798e+09
9.48363e+09
1.06662e+10
1.16845e+10
1.18174e+10
1.18174e+10
1.06784e+10
1.14848e+10
1.00618e+10
8.63429e+09
)
;
    }
    fixedWalls
    {
        type            calculated;
        value           nonuniform List<scalar> 
60
(
8.58975e+09
3.55003e+09
5.43159e+09
7.39075e+09
5.46306e+09
1.10191e+10
7.73134e+09
4.97882e+09
8.40816e+09
7.30189e+09
7.11765e+09
8.27844e+09
5.56921e+09
7.90526e+09
9.38344e+09
9.33641e+09
1.16954e+10
7.60619e+09
7.90122e+09
1.18175e+10
8.69753e+09
9.13568e+09
9.7612e+09
1.03317e+10
1.07473e+10
1.10136e+10
1.1174e+10
1.12703e+10
1.13321e+10
1.13772e+10
1.14154e+10
1.14522e+10
1.14907e+10
1.06862e+10
9.30663e+09
9.10498e+09
8.94394e+09
8.53516e+09
9.13899e+09
8.63429e+09
8.58975e+09
2.75123e+09
5.41238e+09
5.87094e+09
8.69757e+09
8.51372e+09
8.69755e+09
8.69755e+09
8.69754e+09
8.69754e+09
8.69754e+09
7.54622e+09
8.69753e+09
8.69753e+09
8.69753e+09
8.69753e+09
8.69753e+09
8.69753e+09
8.69753e+09
8.69753e+09
)
;
    }
    frontAndBack
    {
        type            empty;
    }
}


// ************************************************************************* //
