/*--------------------------------*- C++ -*----------------------------------*\
| =========                 |                                                 |
| \\      /  F ield         | OpenFOAM: The Open Source CFD Toolbox           |
|  \\    /   O peration     | Version:  2506                                  |
|   \\  /    A nd           | Website:  www.openfoam.com                      |
|    \\/     M anipulation  |                                                 |
\*---------------------------------------------------------------------------*/
FoamFile
{
    version     2.0;
    format      ascii;
    arch        "LSB;label=32;scalar=64";
    class       volVectorField;
    location    "6";
    object      norm_U_composite;
}
// * * * * * * * * * * * * * * * * * * * * * * * * * * * * * * * * * * * * * //

dimensions      [0 0 0 0 0 0 0];

internalField   nonuniform List<vector> 
400
(
(-0.5 5.67347e-14 0)
(-0.5 -1.19598e-14 0)
(-0.5 2.88688e-15 0)
(-0.5 -5.36447e-16 0)
(-0.5 1.76057e-16 0)
(-0.5 4.68029e-17 0)
(-0.5 1.05089e-16 0)
(-0.5 7.94948e-17 0)
(-0.5 4.5546e-17 0)
(-0.5 1.12004e-17 0)
(-0.5 1.80105e-17 0)
(-0.5 9.03003e-18 0)
(-0.5 -1.09767e-17 0)
(-0.5 -1.13133e-17 0)
(-0.5 6.58178e-19 0)
(-0.5 7.81622e-18 0)
(-0.5 -4.08712e-17 0)
(-0.5 -4.62246e-17 0)
(-0.5 2.39392e-17 0)
(-0.5 -8.27975e-18 0)
(-0.5 1.47986e-14 0)
(-0.5 -3.12685e-15 0)
(-0.5 8.76589e-16 0)
(-0.5 -1.46794e-16 0)
(-0.5 -2.05522e-17 0)
(-0.5 -5.40113e-17 0)
(-0.5 2.11018e-17 0)
(-0.5 6.59506e-17 0)
(-0.5 8.86937e-17 0)
(-0.5 4.32126e-17 0)
(-0.5 2.65381e-17 0)
(-0.5 3.23734e-18 0)
(-0.5 -4.38732e-17 0)
(-0.5 -2.70225e-17 0)
(-0.5 3.28215e-17 0)
(-0.5 7.24872e-17 0)
(-0.5 2.08105e-17 0)
(-0.5 -1.3062e-17 0)
(-0.5 -1.12253e-17 0)
(-0.5 -4.59373e-17 0)
(-0.5 -6.20792e-14 0)
(-0.5 1.35116e-14 0)
(-0.5 -3.22417e-15 0)
(-0.5 6.57271e-16 0)
(-0.5 -1.89007e-16 0)
(-0.5 -3.56294e-19 0)
(-0.5 -3.82852e-17 0)
(-0.5 -9.30314e-18 0)
(-0.5 3.5256e-17 0)
(-0.5 2.70547e-17 0)
(-0.5 1.41732e-17 0)
(-0.5 1.69129e-17 0)
(-0.5 1.85155e-17 0)
(-0.5 3.25565e-17 0)
(-0.5 6.18916e-17 0)
(-0.5 6.84766e-17 0)
(-0.5 2.99847e-17 0)
(-0.5 -2.38969e-17 0)
(-0.5 -6.3583e-17 0)
(-0.5 -6.0742e-17 0)
(-0.5 3.99613e-14 0)
(-0.5 -8.60224e-15 0)
(-0.5 1.97678e-15 0)
(-0.5 -4.08841e-16 0)
(-0.5 1.90124e-16 0)
(-0.5 7.76383e-17 0)
(-0.5 2.58224e-17 0)
(-0.5 -1.29687e-17 0)
(-0.5 -1.70663e-18 0)
(-0.5 2.7275e-17 0)
(-0.5 1.02719e-19 0)
(-0.5 1.24592e-17 0)
(-0.5 5.40809e-17 0)
(-0.5 4.08133e-17 0)
(-0.5 -1.3639e-17 0)
(-0.5 -5.39538e-17 0)
(-0.5 -3.16832e-17 0)
(-0.5 -6.62123e-17 0)
(-0.5 -7.23948e-17 0)
(-0.5 -4.0845e-17 0)
(-0.5 -2.88132e-16 0)
(-0.5 -1.78972e-16 0)
(-0.5 6.65902e-17 0)
(-0.5 -3.14552e-17 0)
(-0.5 1.25342e-17 0)
(-0.5 2.0993e-17 0)
(-0.5 -1.36013e-17 0)
(-0.5 -1.81352e-17 0)
(-0.5 -1.65844e-17 0)
(-0.5 3.45069e-17 0)
(-0.5 1.55577e-17 0)
(-0.5 4.97696e-17 0)
(-0.5 4.85529e-17 0)
(-0.5 -6.6957e-18 0)
(-0.5 -5.50369e-17 0)
(-0.5 -8.72537e-17 0)
(-0.5 -4.63254e-17 0)
(-0.5 -3.40789e-17 0)
(-0.5 -4.06466e-17 0)
(-0.5 -5.59798e-18 0)
(-0.5 -3.41139e-14 0)
(-0.5 7.2623e-15 0)
(-0.5 -1.71354e-15 0)
(-0.5 3.16702e-16 0)
(-0.5 -1.16412e-16 0)
(-0.5 -4e-18 0)
(-0.5 -1.00276e-17 0)
(-0.5 -2.83852e-18 0)
(-0.5 -4.49237e-17 0)
(-0.5 -3.98686e-17 0)
(-0.5 4.10092e-17 0)
(-0.5 1.33648e-16 0)
(-0.5 1.28943e-16 0)
(-0.5 1.73155e-17 0)
(-0.5 -3.52101e-17 0)
(-0.5 -5.38217e-17 0)
(-0.5 -6.9706e-17 0)
(-0.5 -3.30745e-17 0)
(-0.5 1.4984e-17 0)
(-0.5 1.1302e-17 0)
(-0.5 4.26334e-14 0)
(-0.5 -8.59826e-15 0)
(-0.5 2.09508e-15 0)
(-0.5 -3.92842e-16 0)
(-0.5 1.2191e-16 0)
(-0.5 -2.72422e-18 0)
(-0.5 1.18761e-17 0)
(-0.5 6.37379e-17 0)
(-0.5 1.07938e-16 0)
(-0.5 9.08606e-17 0)
(-0.5 1.01986e-16 0)
(-0.5 2.4839e-17 0)
(-0.5 -4.37038e-17 0)
(-0.5 -7.63493e-17 0)
(-0.5 -4.73459e-17 0)
(-0.5 2.35634e-17 0)
(-0.5 5.23754e-17 0)
(-0.5 5.4034e-17 0)
(-0.5 1.97084e-17 0)
(-0.5 -2.25367e-18 0)
(-0.5 -1.31833e-14 0)
(-0.5 2.74891e-15 0)
(-0.5 -5.41679e-16 0)
(-0.5 1.89583e-16 0)
(-0.5 4.35604e-17 0)
(-0.5 3.9196e-17 0)
(-0.5 3.42951e-17 0)
(-0.5 5.55676e-17 0)
(-0.5 8.27728e-17 0)
(-0.5 5.92417e-17 0)
(-0.5 -1.62868e-17 0)
(-0.5 -1.28481e-16 0)
(-0.5 -1.09157e-16 0)
(-0.5 -4.3215e-18 0)
(-0.5 1.32849e-17 0)
(-0.5 2.70783e-17 0)
(-0.5 2.34087e-17 0)
(-0.5 1.2789e-17 0)
(-0.5 2.43509e-17 0)
(-0.5 3.56444e-18 0)
(-0.5 -2.22635e-14 0)
(-0.5 4.57453e-15 0)
(-0.5 -1.04298e-15 0)
(-0.5 2.84256e-16 0)
(-0.5 -1.3902e-17 0)
(-0.5 2.77564e-17 0)
(-0.5 3.73261e-17 0)
(-0.5 1.27893e-17 0)
(-0.5 -2.85507e-17 0)
(-0.5 -3.20678e-17 0)
(-0.5 -7.72887e-17 0)
(-0.5 -5.13692e-17 0)
(-0.5 1.08512e-17 0)
(-0.5 6.54087e-17 0)
(-0.5 4.84822e-17 0)
(-0.5 2.70319e-17 0)
(-0.5 -2.01709e-18 0)
(-0.5 2.48723e-18 0)
(-0.5 3.78247e-17 0)
(-0.5 9.86311e-18 0)
(-0.5 3.53987e-14 0)
(-0.5 -7.27481e-15 0)
(-0.5 1.6646e-15 0)
(-0.5 -2.90457e-16 0)
(-0.5 1.366e-16 0)
(-0.5 9.94849e-17 0)
(-0.5 9.70027e-17 0)
(-0.5 7.4267e-18 0)
(-0.5 -3.19013e-17 0)
(-0.5 1.17407e-17 0)
(-0.5 -3.5376e-18 0)
(-0.5 -5.18101e-17 0)
(-0.5 -6.79104e-17 0)
(-0.5 -6.75417e-17 0)
(-0.5 1.40193e-18 0)
(-0.5 5.38297e-17 0)
(-0.5 5.77151e-17 0)
(-0.5 1.23912e-17 0)
(-0.5 -2.06057e-17 0)
(-0.5 -6.26928e-18 0)
(-0.5 -3.2685e-14 0)
(-0.5 6.87342e-15 0)
(-0.5 -1.53387e-15 0)
(-0.5 3.89415e-16 0)
(-0.5 -1.03584e-17 0)
(-0.5 3.90921e-17 0)
(-0.5 1.90688e-17 0)
(-0.5 1.30052e-17 0)
(-0.5 2.78681e-17 0)
(-0.5 4.97072e-17 0)
(-0.5 5.3989e-17 0)
(-0.5 -3.07081e-17 0)
(-0.5 -3.83552e-17 0)
(-0.5 3.08927e-17 0)
(-0.5 8.4974e-17 0)
(-0.5 3.31055e-17 0)
(-0.5 -1.23224e-17 0)
(-0.5 -2.37565e-17 0)
(-0.5 -1.17324e-17 0)
(-0.5 -4.63555e-19 0)
(-0.5 1.75294e-14 0)
(-0.5 -3.62659e-15 0)
(-0.5 9.47341e-16 0)
(-0.5 -1.44644e-16 0)
(-0.5 3.47655e-17 0)
(-0.5 -3.11894e-17 0)
(-0.5 1.79229e-17 0)
(-0.5 1.87147e-17 0)
(-0.5 1.56528e-17 0)
(-0.5 -7.84835e-18 0)
(-0.5 -2.08976e-17 0)
(-0.5 -9.14493e-18 0)
(-0.5 -7.58725e-18 0)
(-0.5 4.41355e-17 0)
(-0.5 6.89894e-17 0)
(-0.5 1.53325e-17 0)
(-0.5 -3.83473e-18 0)
(-0.5 4.0379e-17 0)
(-0.5 4.46454e-17 0)
(-0.5 3.14049e-17 0)
(-0.5 7.13228e-15 0)
(-0.5 -1.33305e-15 0)
(-0.5 3.93964e-16 0)
(-0.5 -1.04657e-16 0)
(-0.5 -1.07343e-17 0)
(-0.5 4.77478e-17 0)
(-0.5 7.63013e-17 0)
(-0.5 6.03362e-17 0)
(-0.5 -2.45408e-17 0)
(-0.5 -1.30369e-16 0)
(-0.5 -1.42698e-16 0)
(-0.5 -5.74066e-17 0)
(-0.5 6.3984e-18 0)
(-0.5 -1.02219e-17 0)
(-0.5 -6.47459e-17 0)
(-0.5 -3.50345e-17 0)
(-0.5 -2.06472e-17 0)
(-0.5 -2.81086e-17 0)
(-0.5 -5.82294e-17 0)
(-0.5 -2.53181e-17 0)
(-0.5 -3.00145e-14 0)
(-0.5 6.35894e-15 0)
(-0.5 -1.44535e-15 0)
(-0.5 3.12327e-16 0)
(-0.5 -7.45506e-17 0)
(-0.5 -9.78408e-18 0)
(-0.5 -8.21663e-17 0)
(-0.5 -4.74622e-17 0)
(-0.5 -2.90468e-17 0)
(-0.5 -5.38864e-17 0)
(-0.5 3.95512e-19 0)
(-0.5 1.23439e-17 0)
(-0.5 -1.90175e-17 0)
(-0.5 -3.53971e-17 0)
(-0.5 -2.73235e-17 0)
(-0.5 1.94442e-17 0)
(-0.5 4.87423e-18 0)
(-0.5 -5.09211e-17 0)
(-0.5 -1.02542e-16 0)
(-0.5 -7.33332e-17 0)
(-0.5 3.87146e-14 0)
(-0.5 -8.30689e-15 0)
(-0.5 1.93267e-15 0)
(-0.5 -3.81276e-16 0)
(-0.5 1.31608e-16 0)
(-0.5 3.8236e-17 0)
(-0.5 -1.03572e-17 0)
(-0.5 -1.03142e-16 0)
(-0.5 -8.27298e-17 0)
(-0.5 -2.96413e-17 0)
(-0.5 -1.45629e-18 0)
(-0.5 -1.81393e-17 0)
(-0.5 -3.64865e-17 0)
(-0.5 -4.33858e-17 0)
(-0.5 -5.28266e-18 0)
(-0.5 -1.692e-17 0)
(-0.5 1.8211e-19 0)
(-0.5 -8.81818e-18 0)
(-0.5 -1.40534e-17 0)
(-0.5 -2.96137e-17 0)
(-0.5 -2.67995e-14 0)
(-0.5 5.73399e-15 0)
(-0.5 -1.30564e-15 0)
(-0.5 2.62124e-16 0)
(-0.5 -1.24244e-16 0)
(-0.5 -5.16797e-17 0)
(-0.5 -5.54676e-17 0)
(-0.5 -7.82335e-17 0)
(-0.5 -5.95954e-17 0)
(-0.5 -3.86419e-17 0)
(-0.5 -8.32922e-17 0)
(-0.5 -2.46184e-17 0)
(-0.5 5.16522e-17 0)
(-0.5 3.0107e-17 0)
(-0.5 -2.29327e-18 0)
(-0.5 -1.31001e-17 0)
(-0.5 -1.64769e-17 0)
(-0.5 -2.74366e-18 0)
(-0.5 1.79544e-17 0)
(-0.5 -1.01186e-17 0)
(-0.5 -5.96464e-15 0)
(-0.5 1.51643e-15 0)
(-0.5 -3.25071e-16 0)
(-0.5 5.93453e-17 0)
(-0.5 -1.31332e-16 0)
(-0.5 -1.66647e-16 0)
(-0.5 -1.41548e-16 0)
(-0.5 -4.57487e-17 0)
(-0.5 -9.61937e-18 0)
(-0.5 -2.55478e-17 0)
(-0.5 -5.64792e-17 0)
(-0.5 1.53179e-17 0)
(-0.5 5.36896e-17 0)
(-0.5 1.98454e-17 0)
(-0.5 2.04407e-17 0)
(-0.5 2.86201e-17 0)
(-0.5 1.75306e-18 0)
(-0.5 1.39499e-17 0)
(-0.5 8.68619e-18 0)
(-0.5 -1.55756e-17 0)
(-0.5 4.1181e-14 0)
(-0.5 -8.69784e-15 0)
(-0.5 2.01213e-15 0)
(-0.5 -4.46778e-16 0)
(-0.5 9.15503e-17 0)
(-0.5 -7.38008e-17 0)
(-0.5 -7.7019e-17 0)
(-0.5 -4.68848e-17 0)
(-0.5 -1.75876e-17 0)
(-0.5 -2.40526e-17 0)
(-0.5 1.37349e-17 0)
(-0.5 3.72041e-17 0)
(-0.5 2.97878e-17 0)
(-0.5 4.83165e-17 0)
(-0.5 3.80329e-17 0)
(-0.5 -1.38281e-17 0)
(-0.5 -4.92906e-17 0)
(-0.5 -7.81875e-18 0)
(-0.5 6.67071e-18 0)
(-0.5 9.67572e-18 0)
(-0.5 -1.76844e-14 0)
(-0.5 3.3226e-15 0)
(-0.5 -8.34015e-16 0)
(-0.5 1.05473e-16 0)
(-0.5 -5.79336e-17 0)
(-0.5 -8.04984e-17 0)
(-0.5 -1.27398e-16 0)
(-0.5 -1.28141e-16 0)
(-0.5 -7.55142e-17 0)
(-0.5 -3.3438e-17 0)
(-0.5 5.14157e-17 0)
(-0.5 2.78511e-17 0)
(-0.5 -3.63309e-17 0)
(-0.5 -2.04583e-17 0)
(-0.5 -1.1606e-17 0)
(-0.5 -3.40196e-17 0)
(-0.5 -3.0678e-17 0)
(-0.5 -1.92841e-17 0)
(-0.5 -1.71598e-17 0)
(-0.5 8.82986e-18 0)
(-0.5 -4.08186e-14 0)
(-0.5 8.70772e-15 0)
(-0.5 -2.06515e-15 0)
(-0.5 4.10669e-16 0)
(-0.5 -1.30486e-16 0)
(-0.5 -1.92331e-17 0)
(-0.5 -5.04779e-17 0)
(-0.5 -3.24369e-17 0)
(-0.5 -2.2361e-17 0)
(-0.5 -1.56141e-17 0)
(-0.5 1.79331e-17 0)
(-0.5 1.65126e-19 0)
(-0.5 -4.50266e-17 0)
(-0.5 -6.58385e-17 0)
(-0.5 -4.32411e-17 0)
(-0.5 -3.75528e-17 0)
(-0.5 -4.58264e-18 0)
(-0.5 -5.6038e-18 0)
(-0.5 -1.67316e-17 0)
(-0.5 -8.49749e-18 0)
)
;

boundaryField
{
    movingWall
    {
        type            calculated;
        value           uniform (-0.5 -0 -0);
    }
    fixedWalls
    {
        type            calculated;
        value           uniform (-0.5 -0 -0);
    }
    frontAndBack
    {
        type            empty;
    }
}


// ************************************************************************* //
