/*--------------------------------*- C++ -*----------------------------------*\
| =========                 |                                                 |
| \\      /  F ield         | OpenFOAM: The Open Source CFD Toolbox           |
|  \\    /   O peration     | Version:  2506                                  |
|   \\  /    A nd           | Website:  www.openfoam.com                      |
|    \\/     M anipulation  |                                                 |
\*---------------------------------------------------------------------------*/
FoamFile
{
    version     2.0;
    format      ascii;
    arch        "LSB;label=32;scalar=64";
    class       volVectorField;
    location    "6";
    object      norm_U_L1;
}
// * * * * * * * * * * * * * * * * * * * * * * * * * * * * * * * * * * * * * //

dimensions      [0 0 0 0 0 0 0];

internalField   nonuniform List<vector> 
400
(
(-0.0025 2.83674e-16 0)
(-0.0025 -5.9799e-17 0)
(-0.0025 1.44344e-17 0)
(-0.0025 -2.68224e-18 0)
(-0.0025 8.80285e-19 0)
(-0.0025 2.34015e-19 0)
(-0.0025 5.25446e-19 0)
(-0.0025 3.97474e-19 0)
(-0.0025 2.2773e-19 0)
(-0.0025 5.60022e-20 0)
(-0.0025 9.00524e-20 0)
(-0.0025 4.51501e-20 0)
(-0.0025 -5.48833e-20 0)
(-0.0025 -5.65667e-20 0)
(-0.0025 3.29089e-21 0)
(-0.0025 3.90811e-20 0)
(-0.0025 -2.04356e-19 0)
(-0.0025 -2.31123e-19 0)
(-0.0025 1.19696e-19 0)
(-0.0025 -4.13987e-20 0)
(-0.0025 7.39928e-17 0)
(-0.0025 -1.56343e-17 0)
(-0.0025 4.38294e-18 0)
(-0.0025 -7.33972e-19 0)
(-0.0025 -1.02761e-19 0)
(-0.0025 -2.70057e-19 0)
(-0.0025 1.05509e-19 0)
(-0.0025 3.29753e-19 0)
(-0.0025 4.43468e-19 0)
(-0.0025 2.16063e-19 0)
(-0.0025 1.32691e-19 0)
(-0.0025 1.61867e-20 0)
(-0.0025 -2.19366e-19 0)
(-0.0025 -1.35113e-19 0)
(-0.0025 1.64107e-19 0)
(-0.0025 3.62436e-19 0)
(-0.0025 1.04052e-19 0)
(-0.0025 -6.53099e-20 0)
(-0.0025 -5.61264e-20 0)
(-0.0025 -2.29686e-19 0)
(-0.0025 -3.10396e-16 0)
(-0.0025 6.75582e-17 0)
(-0.0025 -1.61208e-17 0)
(-0.0025 3.28635e-18 0)
(-0.0025 -9.45033e-19 0)
(-0.0025 -1.78147e-21 0)
(-0.0025 -1.91426e-19 0)
(-0.0025 -4.65157e-20 0)
(-0.0025 1.7628e-19 0)
(-0.0025 1.35274e-19 0)
(-0.0025 7.0866e-20 0)
(-0.0025 8.45643e-20 0)
(-0.0025 9.25777e-20 0)
(-0.0025 1.62783e-19 0)
(-0.0025 3.09458e-19 0)
(-0.0025 3.42383e-19 0)
(-0.0025 1.49923e-19 0)
(-0.0025 -1.19485e-19 0)
(-0.0025 -3.17915e-19 0)
(-0.0025 -3.0371e-19 0)
(-0.0025 1.99806e-16 0)
(-0.0025 -4.30112e-17 0)
(-0.0025 9.8839e-18 0)
(-0.0025 -2.0442e-18 0)
(-0.0025 9.50621e-19 0)
(-0.0025 3.88192e-19 0)
(-0.0025 1.29112e-19 0)
(-0.0025 -6.48433e-20 0)
(-0.0025 -8.53317e-21 0)
(-0.0025 1.36375e-19 0)
(-0.0025 5.13597e-22 0)
(-0.0025 6.22961e-20 0)
(-0.0025 2.70405e-19 0)
(-0.0025 2.04066e-19 0)
(-0.0025 -6.81949e-20 0)
(-0.0025 -2.69769e-19 0)
(-0.0025 -1.58416e-19 0)
(-0.0025 -3.31062e-19 0)
(-0.0025 -3.61974e-19 0)
(-0.0025 -2.04225e-19 0)
(-0.0025 -1.44066e-18 0)
(-0.0025 -8.9486e-19 0)
(-0.0025 3.32951e-19 0)
(-0.0025 -1.57276e-19 0)
(-0.0025 6.26708e-20 0)
(-0.0025 1.04965e-19 0)
(-0.0025 -6.80064e-20 0)
(-0.0025 -9.06762e-20 0)
(-0.0025 -8.29218e-20 0)
(-0.0025 1.72534e-19 0)
(-0.0025 7.77883e-20 0)
(-0.0025 2.48848e-19 0)
(-0.0025 2.42764e-19 0)
(-0.0025 -3.34785e-20 0)
(-0.0025 -2.75185e-19 0)
(-0.0025 -4.36268e-19 0)
(-0.0025 -2.31627e-19 0)
(-0.0025 -1.70395e-19 0)
(-0.0025 -2.03233e-19 0)
(-0.0025 -2.79899e-20 0)
(-0.0025 -1.7057e-16 0)
(-0.0025 3.63115e-17 0)
(-0.0025 -8.56769e-18 0)
(-0.0025 1.58351e-18 0)
(-0.0025 -5.82058e-19 0)
(-0.0025 -2e-20 0)
(-0.0025 -5.01378e-20 0)
(-0.0025 -1.41926e-20 0)
(-0.0025 -2.24619e-19 0)
(-0.0025 -1.99343e-19 0)
(-0.0025 2.05046e-19 0)
(-0.0025 6.6824e-19 0)
(-0.0025 6.44715e-19 0)
(-0.0025 8.65777e-20 0)
(-0.0025 -1.76051e-19 0)
(-0.0025 -2.69108e-19 0)
(-0.0025 -3.4853e-19 0)
(-0.0025 -1.65372e-19 0)
(-0.0025 7.492e-20 0)
(-0.0025 5.65098e-20 0)
(-0.0025 2.13167e-16 0)
(-0.0025 -4.29913e-17 0)
(-0.0025 1.04754e-17 0)
(-0.0025 -1.96421e-18 0)
(-0.0025 6.09549e-19 0)
(-0.0025 -1.36211e-20 0)
(-0.0025 5.93805e-20 0)
(-0.0025 3.18689e-19 0)
(-0.0025 5.3969e-19 0)
(-0.0025 4.54303e-19 0)
(-0.0025 5.09931e-19 0)
(-0.0025 1.24195e-19 0)
(-0.0025 -2.18519e-19 0)
(-0.0025 -3.81747e-19 0)
(-0.0025 -2.36729e-19 0)
(-0.0025 1.17817e-19 0)
(-0.0025 2.61877e-19 0)
(-0.0025 2.7017e-19 0)
(-0.0025 9.85419e-20 0)
(-0.0025 -1.12683e-20 0)
(-0.0025 -6.59163e-17 0)
(-0.0025 1.37446e-17 0)
(-0.0025 -2.7084e-18 0)
(-0.0025 9.47913e-19 0)
(-0.0025 2.17802e-19 0)
(-0.0025 1.9598e-19 0)
(-0.0025 1.71475e-19 0)
(-0.0025 2.77838e-19 0)
(-0.0025 4.13864e-19 0)
(-0.0025 2.96209e-19 0)
(-0.0025 -8.1434e-20 0)
(-0.0025 -6.42403e-19 0)
(-0.0025 -5.45786e-19 0)
(-0.0025 -2.16075e-20 0)
(-0.0025 6.64246e-20 0)
(-0.0025 1.35392e-19 0)
(-0.0025 1.17044e-19 0)
(-0.0025 6.3945e-20 0)
(-0.0025 1.21754e-19 0)
(-0.0025 1.78222e-20 0)
(-0.0025 -1.11317e-16 0)
(-0.0025 2.28727e-17 0)
(-0.0025 -5.21488e-18 0)
(-0.0025 1.42128e-18 0)
(-0.0025 -6.95101e-20 0)
(-0.0025 1.38782e-19 0)
(-0.0025 1.86631e-19 0)
(-0.0025 6.39465e-20 0)
(-0.0025 -1.42753e-19 0)
(-0.0025 -1.60339e-19 0)
(-0.0025 -3.86443e-19 0)
(-0.0025 -2.56846e-19 0)
(-0.0025 5.42562e-20 0)
(-0.0025 3.27044e-19 0)
(-0.0025 2.42411e-19 0)
(-0.0025 1.35159e-19 0)
(-0.0025 -1.00855e-20 0)
(-0.0025 1.24362e-20 0)
(-0.0025 1.89123e-19 0)
(-0.0025 4.93155e-20 0)
(-0.0025 1.76993e-16 0)
(-0.0025 -3.63741e-17 0)
(-0.0025 8.32298e-18 0)
(-0.0025 -1.45229e-18 0)
(-0.0025 6.83e-19 0)
(-0.0025 4.97425e-19 0)
(-0.0025 4.85014e-19 0)
(-0.0025 3.71335e-20 0)
(-0.0025 -1.59507e-19 0)
(-0.0025 5.87036e-20 0)
(-0.0025 -1.7688e-20 0)
(-0.0025 -2.59051e-19 0)
(-0.0025 -3.39552e-19 0)
(-0.0025 -3.37708e-19 0)
(-0.0025 7.00967e-21 0)
(-0.0025 2.69148e-19 0)
(-0.0025 2.88575e-19 0)
(-0.0025 6.19558e-20 0)
(-0.0025 -1.03029e-19 0)
(-0.0025 -3.13464e-20 0)
(-0.0025 -1.63425e-16 0)
(-0.0025 3.43671e-17 0)
(-0.0025 -7.66934e-18 0)
(-0.0025 1.94708e-18 0)
(-0.0025 -5.1792e-20 0)
(-0.0025 1.95461e-19 0)
(-0.0025 9.53441e-20 0)
(-0.0025 6.50261e-20 0)
(-0.0025 1.39341e-19 0)
(-0.0025 2.48536e-19 0)
(-0.0025 2.69945e-19 0)
(-0.0025 -1.5354e-19 0)
(-0.0025 -1.91776e-19 0)
(-0.0025 1.54464e-19 0)
(-0.0025 4.2487e-19 0)
(-0.0025 1.65528e-19 0)
(-0.0025 -6.16122e-20 0)
(-0.0025 -1.18783e-19 0)
(-0.0025 -5.86618e-20 0)
(-0.0025 -2.31777e-21 0)
(-0.0025 8.76471e-17 0)
(-0.0025 -1.8133e-17 0)
(-0.0025 4.7367e-18 0)
(-0.0025 -7.23218e-19 0)
(-0.0025 1.73828e-19 0)
(-0.0025 -1.55947e-19 0)
(-0.0025 8.96145e-20 0)
(-0.0025 9.35734e-20 0)
(-0.0025 7.82642e-20 0)
(-0.0025 -3.92417e-20 0)
(-0.0025 -1.04488e-19 0)
(-0.0025 -4.57247e-20 0)
(-0.0025 -3.79363e-20 0)
(-0.0025 2.20678e-19 0)
(-0.0025 3.44947e-19 0)
(-0.0025 7.66624e-20 0)
(-0.0025 -1.91737e-20 0)
(-0.0025 2.01895e-19 0)
(-0.0025 2.23227e-19 0)
(-0.0025 1.57024e-19 0)
(-0.0025 3.56614e-17 0)
(-0.0025 -6.66523e-18 0)
(-0.0025 1.96982e-18 0)
(-0.0025 -5.23287e-19 0)
(-0.0025 -5.36713e-20 0)
(-0.0025 2.38739e-19 0)
(-0.0025 3.81507e-19 0)
(-0.0025 3.01681e-19 0)
(-0.0025 -1.22704e-19 0)
(-0.0025 -6.51843e-19 0)
(-0.0025 -7.1349e-19 0)
(-0.0025 -2.87033e-19 0)
(-0.0025 3.1992e-20 0)
(-0.0025 -5.11097e-20 0)
(-0.0025 -3.23729e-19 0)
(-0.0025 -1.75173e-19 0)
(-0.0025 -1.03236e-19 0)
(-0.0025 -1.40543e-19 0)
(-0.0025 -2.91147e-19 0)
(-0.0025 -1.2659e-19 0)
(-0.0025 -1.50072e-16 0)
(-0.0025 3.17947e-17 0)
(-0.0025 -7.22674e-18 0)
(-0.0025 1.56163e-18 0)
(-0.0025 -3.72753e-19 0)
(-0.0025 -4.89204e-20 0)
(-0.0025 -4.10831e-19 0)
(-0.0025 -2.37311e-19 0)
(-0.0025 -1.45234e-19 0)
(-0.0025 -2.69432e-19 0)
(-0.0025 1.97756e-21 0)
(-0.0025 6.17193e-20 0)
(-0.0025 -9.50876e-20 0)
(-0.0025 -1.76985e-19 0)
(-0.0025 -1.36618e-19 0)
(-0.0025 9.72212e-20 0)
(-0.0025 2.43712e-20 0)
(-0.0025 -2.54605e-19 0)
(-0.0025 -5.12709e-19 0)
(-0.0025 -3.66666e-19 0)
(-0.0025 1.93573e-16 0)
(-0.0025 -4.15345e-17 0)
(-0.0025 9.66337e-18 0)
(-0.0025 -1.90638e-18 0)
(-0.0025 6.58038e-19 0)
(-0.0025 1.9118e-19 0)
(-0.0025 -5.1786e-20 0)
(-0.0025 -5.15708e-19 0)
(-0.0025 -4.13649e-19 0)
(-0.0025 -1.48207e-19 0)
(-0.0025 -7.28145e-21 0)
(-0.0025 -9.06967e-20 0)
(-0.0025 -1.82432e-19 0)
(-0.0025 -2.16929e-19 0)
(-0.0025 -2.64133e-20 0)
(-0.0025 -8.45999e-20 0)
(-0.0025 9.10552e-22 0)
(-0.0025 -4.40909e-20 0)
(-0.0025 -7.02668e-20 0)
(-0.0025 -1.48069e-19 0)
(-0.0025 -1.33998e-16 0)
(-0.0025 2.867e-17 0)
(-0.0025 -6.52818e-18 0)
(-0.0025 1.31062e-18 0)
(-0.0025 -6.21222e-19 0)
(-0.0025 -2.58398e-19 0)
(-0.0025 -2.77338e-19 0)
(-0.0025 -3.91168e-19 0)
(-0.0025 -2.97977e-19 0)
(-0.0025 -1.93209e-19 0)
(-0.0025 -4.16461e-19 0)
(-0.0025 -1.23092e-19 0)
(-0.0025 2.58261e-19 0)
(-0.0025 1.50535e-19 0)
(-0.0025 -1.14664e-20 0)
(-0.0025 -6.55006e-20 0)
(-0.0025 -8.23844e-20 0)
(-0.0025 -1.37183e-20 0)
(-0.0025 8.97721e-20 0)
(-0.0025 -5.05928e-20 0)
(-0.0025 -2.98232e-17 0)
(-0.0025 7.58217e-18 0)
(-0.0025 -1.62536e-18 0)
(-0.0025 2.96727e-19 0)
(-0.0025 -6.5666e-19 0)
(-0.0025 -8.33235e-19 0)
(-0.0025 -7.07742e-19 0)
(-0.0025 -2.28743e-19 0)
(-0.0025 -4.80968e-20 0)
(-0.0025 -1.27739e-19 0)
(-0.0025 -2.82396e-19 0)
(-0.0025 7.65894e-20 0)
(-0.0025 2.68448e-19 0)
(-0.0025 9.92268e-20 0)
(-0.0025 1.02204e-19 0)
(-0.0025 1.431e-19 0)
(-0.0025 8.76529e-21 0)
(-0.0025 6.97496e-20 0)
(-0.0025 4.34309e-20 0)
(-0.0025 -7.78778e-20 0)
(-0.0025 2.05905e-16 0)
(-0.0025 -4.34892e-17 0)
(-0.0025 1.00607e-17 0)
(-0.0025 -2.23389e-18 0)
(-0.0025 4.57752e-19 0)
(-0.0025 -3.69004e-19 0)
(-0.0025 -3.85095e-19 0)
(-0.0025 -2.34424e-19 0)
(-0.0025 -8.79378e-20 0)
(-0.0025 -1.20263e-19 0)
(-0.0025 6.86746e-20 0)
(-0.0025 1.86021e-19 0)
(-0.0025 1.48939e-19 0)
(-0.0025 2.41582e-19 0)
(-0.0025 1.90165e-19 0)
(-0.0025 -6.91406e-20 0)
(-0.0025 -2.46453e-19 0)
(-0.0025 -3.90938e-20 0)
(-0.0025 3.33535e-20 0)
(-0.0025 4.83786e-20 0)
(-0.0025 -8.84218e-17 0)
(-0.0025 1.6613e-17 0)
(-0.0025 -4.17007e-18 0)
(-0.0025 5.27367e-19 0)
(-0.0025 -2.89668e-19 0)
(-0.0025 -4.02492e-19 0)
(-0.0025 -6.36988e-19 0)
(-0.0025 -6.40707e-19 0)
(-0.0025 -3.77571e-19 0)
(-0.0025 -1.6719e-19 0)
(-0.0025 2.57078e-19 0)
(-0.0025 1.39255e-19 0)
(-0.0025 -1.81654e-19 0)
(-0.0025 -1.02292e-19 0)
(-0.0025 -5.803e-20 0)
(-0.0025 -1.70098e-19 0)
(-0.0025 -1.5339e-19 0)
(-0.0025 -9.64205e-20 0)
(-0.0025 -8.57988e-20 0)
(-0.0025 4.41493e-20 0)
(-0.0025 -2.04093e-16 0)
(-0.0025 4.35386e-17 0)
(-0.0025 -1.03258e-17 0)
(-0.0025 2.05334e-18 0)
(-0.0025 -6.52428e-19 0)
(-0.0025 -9.61653e-20 0)
(-0.0025 -2.52389e-19 0)
(-0.0025 -1.62184e-19 0)
(-0.0025 -1.11805e-19 0)
(-0.0025 -7.80703e-20 0)
(-0.0025 8.96653e-20 0)
(-0.0025 8.25629e-22 0)
(-0.0025 -2.25133e-19 0)
(-0.0025 -3.29193e-19 0)
(-0.0025 -2.16205e-19 0)
(-0.0025 -1.87764e-19 0)
(-0.0025 -2.29132e-20 0)
(-0.0025 -2.8019e-20 0)
(-0.0025 -8.36581e-20 0)
(-0.0025 -4.24874e-20 0)
)
;

boundaryField
{
    movingWall
    {
        type            calculated;
        value           uniform (-0.0025 -0 -0);
    }
    fixedWalls
    {
        type            calculated;
        value           uniform (-0.0025 -0 -0);
    }
    frontAndBack
    {
        type            empty;
    }
}


// ************************************************************************* //
