/*--------------------------------*- C++ -*----------------------------------*\
| =========                 |                                                 |
| \\      /  F ield         | OpenFOAM: The Open Source CFD Toolbox           |
|  \\    /   O peration     | Version:  2506                                  |
|   \\  /    A nd           | Website:  www.openfoam.com                      |
|    \\/     M anipulation  |                                                 |
\*---------------------------------------------------------------------------*/
FoamFile
{
    version     2.0;
    format      ascii;
    arch        "LSB;label=32;scalar=64";
    class       volScalarField;
    location    "6";
    object      P_A;
}
// * * * * * * * * * * * * * * * * * * * * * * * * * * * * * * * * * * * * * //

dimensions      [1 -1 -3 0 0 0 0];

internalField   nonuniform List<scalar> 
400
(
1.14604e-31
1.14603e-31
1.14603e-31
1.14603e-31
1.14602e-31
1.14602e-31
1.14601e-31
1.14601e-31
1.14601e-31
1.14601e-31
1.14601e-31
1.14601e-31
1.146e-31
1.146e-31
1.146e-31
1.146e-31
1.146e-31
1.146e-31
1.146e-31
1.146e-31
1.39746e-31
1.37239e-31
1.3742e-31
1.37498e-31
1.37654e-31
1.37734e-31
1.37892e-31
1.37978e-31
1.38138e-31
1.38228e-31
1.38391e-31
1.38484e-31
1.3865e-31
1.38747e-31
1.38917e-31
1.39017e-31
1.39191e-31
1.39294e-31
1.39382e-31
1.39524e-31
1.82198e-31
1.78766e-31
1.79017e-31
1.79125e-31
1.79339e-31
1.7945e-31
1.79668e-31
1.79782e-31
1.80006e-31
1.80124e-31
1.80351e-31
1.80473e-31
1.80704e-31
1.80831e-31
1.81066e-31
1.81197e-31
1.81435e-31
1.81571e-31
1.81692e-31
1.81882e-31
2.28731e-31
2.24291e-31
2.24615e-31
2.24753e-31
2.25027e-31
2.25172e-31
2.2545e-31
2.25601e-31
2.25885e-31
2.26042e-31
2.26331e-31
2.26493e-31
2.26787e-31
2.26954e-31
2.27254e-31
2.27426e-31
2.27733e-31
2.27909e-31
2.28065e-31
2.28311e-31
2.67851e-31
2.62537e-31
2.62923e-31
2.63088e-31
2.63414e-31
2.63587e-31
2.63918e-31
2.64099e-31
2.64437e-31
2.64624e-31
2.6497e-31
2.65163e-31
2.65515e-31
2.65715e-31
2.66073e-31
2.66279e-31
2.66646e-31
2.66857e-31
2.67043e-31
2.67338e-31
2.95437e-31
2.89494e-31
2.89924e-31
2.90107e-31
2.90473e-31
2.90663e-31
2.91037e-31
2.91236e-31
2.91616e-31
2.91824e-31
2.92209e-31
2.92425e-31
2.92818e-31
2.93041e-31
2.93442e-31
2.93672e-31
2.94082e-31
2.94318e-31
2.94526e-31
2.94856e-31
3.13037e-31
3.06691e-31
3.07145e-31
3.07344e-31
3.07734e-31
3.07937e-31
3.08336e-31
3.08546e-31
3.08955e-31
3.09172e-31
3.09589e-31
3.09814e-31
3.10239e-31
3.10472e-31
3.10904e-31
3.11146e-31
3.11586e-31
3.11837e-31
3.1206e-31
3.12412e-31
3.23981e-31
3.17379e-31
3.1786e-31
3.18058e-31
3.18467e-31
3.18677e-31
3.1909e-31
3.19311e-31
3.19732e-31
3.19962e-31
3.20391e-31
3.2063e-31
3.21066e-31
3.21314e-31
3.21759e-31
3.22014e-31
3.22469e-31
3.22731e-31
3.22962e-31
3.23329e-31
3.31153e-31
3.24388e-31
3.24869e-31
3.25083e-31
3.25498e-31
3.25713e-31
3.26138e-31
3.26363e-31
3.26794e-31
3.27028e-31
3.27469e-31
3.27712e-31
3.28163e-31
3.28413e-31
3.28873e-31
3.29131e-31
3.296e-31
3.29868e-31
3.30105e-31
3.3048e-31
3.36453e-31
3.29564e-31
3.30059e-31
3.30271e-31
3.30694e-31
3.30914e-31
3.31347e-31
3.31577e-31
3.32015e-31
3.32256e-31
3.32702e-31
3.32952e-31
3.33407e-31
3.33665e-31
3.34129e-31
3.34396e-31
3.3487e-31
3.35145e-31
3.35385e-31
3.35768e-31
3.41002e-31
3.34006e-31
3.34508e-31
3.34725e-31
3.35152e-31
3.35377e-31
3.35814e-31
3.36048e-31
3.36493e-31
3.36737e-31
3.37191e-31
3.37443e-31
3.37907e-31
3.38167e-31
3.3864e-31
3.38909e-31
3.39392e-31
3.3967e-31
3.39915e-31
3.40303e-31
3.45424e-31
3.38328e-31
3.38834e-31
3.39056e-31
3.39493e-31
3.39717e-31
3.40165e-31
3.40397e-31
3.40855e-31
3.41095e-31
3.41563e-31
3.41812e-31
3.42288e-31
3.42547e-31
3.43031e-31
3.43301e-31
3.43793e-31
3.44073e-31
3.44322e-31
3.44716e-31
3.50102e-31
3.42895e-31
3.43417e-31
3.43634e-31
3.44079e-31
3.44307e-31
3.44759e-31
3.44999e-31
3.45458e-31
3.45709e-31
3.46176e-31
3.46437e-31
3.46912e-31
3.47183e-31
3.47668e-31
3.47947e-31
3.48443e-31
3.4873e-31
3.48981e-31
3.49381e-31
3.55284e-31
3.47958e-31
3.48483e-31
3.4871e-31
3.49157e-31
3.49392e-31
3.4985e-31
3.50093e-31
3.50561e-31
3.50815e-31
3.51291e-31
3.51555e-31
3.5204e-31
3.52313e-31
3.52808e-31
3.5309e-31
3.53595e-31
3.53886e-31
3.54142e-31
3.54549e-31
3.61146e-31
3.53683e-31
3.54217e-31
3.54448e-31
3.54907e-31
3.55142e-31
3.55612e-31
3.55857e-31
3.56337e-31
3.5659e-31
3.57081e-31
3.57343e-31
3.57844e-31
3.58116e-31
3.58625e-31
3.58908e-31
3.59425e-31
3.5972e-31
3.59982e-31
3.60396e-31
3.6776e-31
3.60145e-31
3.60691e-31
3.60925e-31
3.6139e-31
3.61635e-31
3.62108e-31
3.62364e-31
3.62848e-31
3.63115e-31
3.63605e-31
3.63883e-31
3.64383e-31
3.6467e-31
3.65182e-31
3.65478e-31
3.66001e-31
3.66305e-31
3.66571e-31
3.66993e-31
3.74959e-31
3.67174e-31
3.67739e-31
3.67971e-31
3.68452e-31
3.68697e-31
3.69185e-31
3.69443e-31
3.69939e-31
3.70209e-31
3.70713e-31
3.70995e-31
3.71508e-31
3.718e-31
3.72324e-31
3.72625e-31
3.7316e-31
3.73471e-31
3.73742e-31
3.74174e-31
3.82141e-31
3.74194e-31
3.74761e-31
3.75008e-31
3.75492e-31
3.75748e-31
3.76241e-31
3.76509e-31
3.77012e-31
3.77289e-31
3.77804e-31
3.7809e-31
3.78617e-31
3.78912e-31
3.79449e-31
3.79755e-31
3.80303e-31
3.80619e-31
3.80897e-31
3.81338e-31
3.88156e-31
3.80231e-31
3.80787e-31
3.81028e-31
3.81506e-31
3.81756e-31
3.82246e-31
3.82508e-31
3.83009e-31
3.83284e-31
3.83797e-31
3.84084e-31
3.84609e-31
3.84908e-31
3.85447e-31
3.85758e-31
3.86308e-31
3.86633e-31
3.86913e-31
3.87361e-31
3.90877e-31
3.90874e-31
3.90873e-31
3.90871e-31
3.9087e-31
3.90868e-31
3.90868e-31
3.90866e-31
3.90867e-31
3.90865e-31
3.90865e-31
3.90864e-31
3.90864e-31
3.90863e-31
3.90864e-31
3.90863e-31
3.90863e-31
3.90863e-31
3.90863e-31
3.90863e-31
)
;

boundaryField
{
    movingWall
    {
        type            calculated;
        value           nonuniform List<scalar> 
20
(
3.90877e-31
3.90874e-31
3.90873e-31
3.90871e-31
3.9087e-31
3.90868e-31
3.90868e-31
3.90866e-31
3.90867e-31
3.90865e-31
3.90865e-31
3.90864e-31
3.90864e-31
3.90863e-31
3.90864e-31
3.90863e-31
3.90863e-31
3.90863e-31
3.90863e-31
3.90863e-31
)
;
    }
    fixedWalls
    {
        type            calculated;
        value           nonuniform List<scalar> 
60
(
1.14604e-31
1.39746e-31
1.82198e-31
2.28731e-31
2.67851e-31
2.95437e-31
3.13037e-31
3.23981e-31
3.31153e-31
3.36453e-31
3.41002e-31
3.45424e-31
3.50102e-31
3.55284e-31
3.61146e-31
3.6776e-31
3.74959e-31
3.82141e-31
3.88156e-31
3.90877e-31
1.146e-31
1.39524e-31
1.81882e-31
2.28311e-31
2.67338e-31
2.94856e-31
3.12412e-31
3.23329e-31
3.3048e-31
3.35768e-31
3.40303e-31
3.44716e-31
3.49381e-31
3.54549e-31
3.60396e-31
3.66993e-31
3.74174e-31
3.81338e-31
3.87361e-31
3.90863e-31
1.14604e-31
1.14603e-31
1.14603e-31
1.14603e-31
1.14602e-31
1.14602e-31
1.14601e-31
1.14601e-31
1.14601e-31
1.14601e-31
1.14601e-31
1.14601e-31
1.146e-31
1.146e-31
1.146e-31
1.146e-31
1.146e-31
1.146e-31
1.146e-31
1.146e-31
)
;
    }
    frontAndBack
    {
        type            empty;
    }
}


// ************************************************************************* //
