/*--------------------------------*- C++ -*----------------------------------*\
| =========                 |                                                 |
| \\      /  F ield         | OpenFOAM: The Open Source CFD Toolbox           |
|  \\    /   O peration     | Version:  2506                                  |
|   \\  /    A nd           | Website:  www.openfoam.com                      |
|    \\/     M anipulation  |                                                 |
\*---------------------------------------------------------------------------*/
FoamFile
{
    version     2.0;
    format      ascii;
    arch        "LSB;label=32;scalar=64";
    class       surfaceScalarField;
    location    "6";
    object      PecletNoField;
}
// * * * * * * * * * * * * * * * * * * * * * * * * * * * * * * * * * * * * * //

dimensions      [0 0 0 0 0 0 0];

oriented        oriented;

internalField   nonuniform List<scalar> 
760
(
429.179
3.50184e-12
429.179
5.18819e-12
429.179
1.57987e-12
429.18
1.97379e-13
429.18
6.03504e-14
429.18
1.59524e-14
429.18
8.48179e-14
429.18
6.73086e-14
429.18
5.32244e-14
429.18
1.96349e-14
429.18
2.26656e-14
429.18
2.14781e-14
429.18
1.7671e-14
429.18
1.55291e-14
429.18
2.30854e-14
429.18
4.91596e-14
429.18
1.06256e-14
429.18
7.00819e-14
429.18
9.99962e-16
1.24272e-14
427.107
2.56208e-12
426.596
3.26358e-12
426.669
9.57673e-13
426.732
1.62587e-13
426.796
7.77423e-14
426.859
5.92591e-14
426.923
4.29119e-14
426.986
1.25134e-14
427.05
5.02598e-14
427.113
2.92026e-14
427.177
2.49566e-14
427.24
1.63332e-14
427.304
1.02057e-14
427.367
2.06117e-15
427.431
2.25925e-14
427.494
4.46256e-14
427.557
3.16983e-14
427.601
3.51633e-14
427.653
2.19195e-14
6.52519e-14
425.005
1.74289e-12
424.456
2.11596e-12
424.536
5.59539e-13
424.604
5.98149e-14
424.674
9.36934e-15
424.743
5.28563e-14
424.812
2.9865e-15
424.88
9.26457e-15
424.949
3.43414e-14
425.017
3.25499e-14
425.085
1.49048e-15
425.153
7.8015e-15
425.221
3.62686e-14
425.289
1.18279e-14
425.356
2.03776e-14
425.424
4.14836e-14
425.491
7.48064e-15
425.537
6.52163e-14
425.592
5.34926e-14
4.43969e-14
423.166
1.9235e-12
422.588
2.74039e-12
422.672
8.90124e-13
422.745
8.35274e-14
422.818
8.6896e-14
422.89
4.58178e-14
422.963
2.40906e-15
423.035
1.45342e-14
423.107
2.0218e-14
423.179
3.20388e-14
423.25
8.70608e-15
423.322
4.16809e-15
423.393
2.29346e-14
423.465
5.27613e-14
423.536
1.45103e-14
423.607
1.0503e-13
423.677
3.85379e-14
423.726
1.50129e-14
423.783
5.35135e-14
3.289e-14
421.864
1.04542e-12
421.266
1.8479e-12
421.353
7.19673e-13
421.428
1.60996e-14
421.504
5.78069e-14
421.579
9.91607e-16
421.655
4.09546e-15
421.729
7.76e-17
421.804
3.82515e-14
421.878
6.75428e-15
421.953
3.02958e-14
422.027
1.01579e-13
422.101
8.89412e-14
422.175
1.98732e-14
422.248
3.88325e-14
422.322
3.52311e-14
422.395
6.45536e-14
422.445
4.91428e-14
422.505
1.39551e-14
2.50539e-14
421.046
8.74403e-14
420.435
3.03183e-13
420.524
1.66675e-13
420.601
3.22666e-15
420.678
3.16695e-14
420.755
6.64232e-15
420.832
4.28508e-15
420.908
3.30039e-14
420.985
2.6733e-14
421.061
1.2918e-14
421.137
1.8805e-14
421.213
5.40165e-14
421.288
5.444e-14
421.364
8.20749e-15
421.439
3.51526e-14
421.514
9.12213e-15
421.589
7.01919e-15
421.641
9.72059e-15
421.702
1.52172e-14
3.78415e-15
420.56
7.15062e-13
419.94
1.45505e-12
420.031
6.67022e-13
420.108
3.07544e-14
420.187
2.43323e-14
420.264
4.52105e-15
420.343
1.87481e-14
420.42
2.534e-14
420.497
1.10215e-13
420.574
1.03756e-13
420.652
8.88773e-14
420.728
2.53449e-14
420.805
9.10311e-14
420.882
6.61305e-14
420.958
2.34853e-14
421.034
5.29203e-15
421.11
2.21772e-14
421.162
7.3216e-14
421.224
2.11915e-14
5.98693e-15
420.27
9.83861e-13
419.645
1.58592e-12
419.736
6.59678e-13
419.815
1.13069e-13
419.894
6.45114e-14
419.972
3.87324e-14
420.051
6.22493e-14
420.129
4.90857e-14
420.207
7.12452e-15
420.284
1.10208e-16
420.362
5.2897e-14
420.44
1.01708e-13
420.517
3.53243e-14
420.594
6.44259e-14
420.671
3.71659e-14
420.748
2.9601e-14
420.824
1.80488e-14
420.877
3.21e-14
420.939
1.05881e-14
2.79805e-15
420.084
3.26263e-14
419.457
2.77405e-13
419.548
2.28095e-13
419.627
4.60219e-14
419.707
2.1741e-14
419.785
5.95014e-14
419.864
5.8763e-14
419.943
1.10326e-14
420.021
3.08785e-14
420.099
7.52064e-15
420.178
5.78408e-14
420.255
2.32137e-14
420.333
1.91287e-14
420.41
2.04869e-14
420.488
7.10886e-15
420.565
4.28128e-14
420.642
2.03418e-14
420.694
2.84567e-14
420.757
4.27628e-14
2.06417e-14
419.95
3.28453e-13
419.32
1.29626e-13
419.412
5.19946e-14
419.491
6.39635e-14
419.571
5.81012e-14
419.65
7.20539e-14
419.729
6.23244e-14
419.808
4.94619e-15
419.887
1.34104e-14
419.965
1.9721e-14
420.043
5.33921e-14
420.121
5.32835e-14
420.199
4.68938e-14
420.277
9.41519e-15
420.355
3.03438e-14
420.432
1.4302e-14
420.509
1.92536e-14
420.562
1.3452e-14
420.625
4.17387e-14
3.32714e-14
419.836
1.40722e-13
419.205
4.6792e-14
419.297
1.90231e-13
419.376
1.84521e-14
419.456
3.36912e-14
419.535
2.34395e-14
419.615
3.36416e-14
419.694
6.14558e-16
419.773
4.91791e-14
419.851
3.08901e-14
419.93
1.00103e-14
420.008
1.20948e-14
420.086
3.21577e-14
420.164
1.75114e-14
420.242
9.79292e-14
420.32
5.21605e-14
420.397
3.31104e-15
420.45
3.74668e-15
420.513
2.26402e-14
2.70455e-14
419.727
2.29536e-13
419.094
2.70278e-13
419.186
5.02841e-13
419.265
1.74764e-14
419.346
2.1919e-14
419.425
1.96247e-14
419.505
8.31841e-14
419.584
3.42129e-14
419.663
3.82892e-14
419.742
6.52751e-14
419.821
8.65244e-14
419.899
5.77595e-14
419.978
9.83857e-15
420.056
1.03261e-14
420.134
2.27011e-14
420.212
3.3655e-14
420.289
2.21049e-14
420.343
1.43102e-15
420.406
3.87769e-15
4.53353e-14
419.613
8.33923e-14
418.978
5.30755e-13
419.07
3.94535e-13
419.15
2.16329e-14
419.231
1.85537e-14
419.31
1.17468e-14
419.39
6.1973e-15
419.47
4.31558e-14
419.549
1.6353e-14
419.628
7.02591e-14
419.707
5.79322e-14
419.786
2.50146e-14
419.864
5.56271e-15
419.943
1.66016e-14
420.021
3.80882e-14
420.099
5.58282e-15
420.177
1.10851e-15
420.23
2.39986e-14
420.294
7.86603e-14
9.5488e-14
419.488
1.68569e-13
418.851
6.72908e-14
418.944
1.75143e-13
419.024
2.83472e-14
419.105
3.07931e-14
419.184
1.99053e-14
419.265
6.62267e-14
419.344
1.10405e-13
419.424
7.8569e-14
419.503
6.06167e-14
419.583
1.53711e-14
419.662
3.70338e-14
419.741
2.62448e-14
419.819
7.17108e-14
419.898
1.36568e-14
419.976
1.88831e-14
420.054
1.26667e-14
420.108
1.26228e-14
420.171
4.58057e-14
4.10864e-14
419.349
7.63936e-13
418.71
8.32554e-13
418.803
2.65116e-13
418.883
5.44975e-14
418.964
2.29018e-14
419.044
2.79334e-16
419.125
8.39329e-15
419.205
5.28157e-14
419.285
5.11014e-14
419.364
1.4087e-14
419.444
3.64347e-14
419.523
3.29103e-14
419.602
1.4098e-14
419.681
8.72996e-15
419.76
6.30421e-15
419.839
3.84756e-14
419.917
2.66952e-14
419.971
2.78983e-14
420.034
7.26855e-15
2.89898e-15
419.194
1.17857e-12
418.553
2.08116e-12
418.646
6.83386e-13
418.727
9.31082e-14
418.809
8.48256e-14
418.889
1.14984e-13
418.97
1.05377e-13
419.05
6.54064e-14
419.13
3.18653e-14
419.21
2.80294e-14
419.29
8.11232e-14
419.369
2.47153e-14
419.449
3.3428e-14
419.528
2.80576e-14
419.607
1.91991e-15
419.686
4.0334e-14
419.765
2.52838e-14
419.819
1.47686e-14
419.883
8.06106e-15
1.29713e-14
419.029
1.65396e-12
418.385
2.14551e-12
418.479
7.25234e-13
418.56
1.07318e-13
418.642
3.81713e-14
418.722
1.00271e-13
418.804
1.09389e-13
418.884
3.41375e-14
418.965
1.61884e-15
419.045
2.49961e-15
419.125
1.44569e-14
419.205
3.92065e-14
419.285
6.61908e-14
419.364
2.82444e-14
419.444
2.60346e-14
419.523
2.16218e-14
419.602
5.2239e-14
419.656
1.98825e-15
419.72
1.64947e-14
9.53279e-15
418.867
2.08037e-12
418.221
2.1614e-12
418.315
4.67054e-13
418.396
1.48946e-13
418.479
2.20198e-14
418.56
5.68168e-14
418.641
6.03367e-14
418.722
7.22178e-14
418.803
4.86604e-14
418.883
4.00776e-14
418.964
4.72535e-14
419.044
1.84419e-14
419.124
3.72741e-14
419.204
1.6891e-14
419.284
2.27426e-14
419.363
3.98449e-15
419.442
2.10755e-14
419.497
1.6143e-14
419.561
2.04413e-14
2.82874e-14
418.749
2.8991e-12
418.112
4.37025e-12
418.203
1.19589e-12
418.282
1.71805e-13
418.362
6.82766e-14
418.44
3.36382e-14
418.52
7.80148e-14
418.599
6.73631e-14
418.678
3.76448e-14
418.757
2.84578e-14
418.836
1.62116e-14
418.915
2.20718e-14
418.995
2.33536e-14
419.074
5.27669e-14
419.153
3.3575e-14
419.232
4.24457e-14
419.311
1.66096e-14
419.366
5.69977e-15
419.43
4.8547e-15
1.96568e-14
419.393
419.394
419.394
419.394
419.394
419.394
419.394
419.394
419.394
419.394
419.394
419.394
419.394
419.394
419.394
419.394
419.394
419.394
419.394
)
;

boundaryField
{
    movingWall
    {
        type            calculated;
        value           uniform 0;
    }
    fixedWalls
    {
        type            calculated;
        value           nonuniform List<scalar> 
60
(
250
250
250
250
250
250
250
250
250
250
250
250
250
250
250
250
250
250
250
250
250
250
250
250
250
250
250
250
250
250
250
250
250
250
250
250
250
250
250
250
0
0
0
0
0
0
0
0
0
0
0
0
0
0
0
0
0
0
0
0
)
;
    }
    frontAndBack
    {
        type            empty;
    }
}


// ************************************************************************* //
