/*--------------------------------*- C++ -*----------------------------------*\
| =========                 |                                                 |
| \\      /  F ield         | OpenFOAM: The Open Source CFD Toolbox           |
|  \\    /   O peration     | Version:  2506                                  |
|   \\  /    A nd           | Website:  www.openfoam.com                      |
|    \\/     M anipulation  |                                                 |
\*---------------------------------------------------------------------------*/
FoamFile
{
    version     2.0;
    format      ascii;
    arch        "LSB;label=32;scalar=64";
    class       surfaceScalarField;
    location    "6";
    object      phi;
}
// * * * * * * * * * * * * * * * * * * * * * * * * * * * * * * * * * * * * * //

dimensions      [0 3 -1 0 0 0 0];

oriented        oriented;

internalField   nonuniform List<scalar> 
760
(
-5e-05
4.08688e-19
-5e-05
-6.06298e-19
-5e-05
1.84604e-19
-5e-05
-2.3062e-20
-5e-05
7.05073e-21
-5e-05
1.86362e-21
-5e-05
9.90778e-21
-5e-05
7.86205e-21
-5e-05
6.21634e-21
-5e-05
2.29314e-21
-5e-05
2.64684e-21
-5e-05
2.50802e-21
-5e-05
-2.06327e-21
-5e-05
-1.81308e-21
-5e-05
2.69505e-21
-5e-05
5.73872e-21
-5e-05
-1.24028e-21
-5e-05
-8.17989e-21
-5e-05
-1.16709e-22
-1.45032e-21
-5e-05
-3.00262e-19
-5e-05
3.83527e-19
-5e-05
-1.12515e-19
-5e-05
1.90999e-20
-5e-05
-9.13092e-21
-5e-05
-6.95928e-21
-5e-05
-5.03849e-21
-5e-05
1.4691e-21
-5e-05
5.89942e-21
-5e-05
3.42737e-21
-5e-05
2.92847e-21
-5e-05
1.91636e-21
-5e-05
-1.19719e-21
-5e-05
-2.4176e-22
-5e-05
2.64943e-21
-5e-05
5.23264e-21
-5e-05
3.71611e-21
-5e-05
4.12187e-21
-5e-05
-2.56917e-21
-7.64696e-21
-5e-05
-2.05188e-19
-5e-05
2.49841e-19
-5e-05
-6.60492e-20
-5e-05
7.05987e-21
-5e-05
-1.10561e-21
-5e-05
6.23645e-21
-5e-05
3.52298e-22
-5e-05
-1.09275e-21
-5e-05
4.04969e-21
-5e-05
3.83797e-21
-5e-05
-1.75706e-22
-5e-05
9.19573e-22
-5e-05
4.27414e-21
-5e-05
1.39371e-21
-5e-05
2.40065e-21
-5e-05
4.88653e-21
-5e-05
8.80994e-22
-5e-05
-7.6796e-21
-5e-05
-6.29841e-21
-5.22661e-21
-5e-05
2.27276e-19
-5e-05
-3.24794e-19
-5e-05
1.05468e-19
-5e-05
-9.89575e-21
-5e-05
1.02925e-20
-5e-05
5.42626e-21
-5e-05
2.85244e-22
-5e-05
-1.7207e-21
-5e-05
-2.39307e-21
-5e-05
3.79174e-21
-5e-05
1.03013e-21
-5e-05
4.93117e-22
-5e-05
2.71275e-21
-5e-05
6.23992e-21
-5e-05
-1.71572e-21
-5e-05
-1.24173e-20
-5e-05
-4.55521e-21
-5e-05
-1.77432e-21
-5e-05
-6.32386e-21
-3.88606e-21
-5e-05
-1.23829e-19
-5e-05
2.19576e-19
-5e-05
-8.54896e-20
-5e-05
1.91223e-21
-5e-05
-6.86438e-21
-5e-05
-1.17735e-22
-5e-05
4.86148e-22
-5e-05
-9.21025e-24
-5e-05
-4.53899e-21
-5e-05
-8.01369e-22
-5e-05
3.59367e-21
-5e-05
1.20477e-20
-5e-05
1.05464e-20
-5e-05
-2.3562e-21
-5e-05
-4.60301e-21
-5e-05
-4.17559e-21
-5e-05
-7.64917e-21
-5e-05
-5.82234e-21
-5e-05
-1.65318e-21
2.96749e-21
-5e-05
1.03729e-20
-5e-05
-3.60825e-20
-5e-05
1.98304e-20
-5e-05
3.83849e-22
-5e-05
3.76654e-21
-5e-05
7.89888e-22
-5e-05
5.0945e-22
-5e-05
3.92329e-21
-5e-05
3.17711e-21
-5e-05
-1.53504e-21
-5e-05
2.23409e-21
-5e-05
6.41645e-21
-5e-05
6.46527e-21
-5e-05
-9.74588e-22
-5e-05
-4.1732e-21
-5e-05
-1.08281e-21
-5e-05
8.32996e-22
-5e-05
-1.15343e-21
-5e-05
1.80545e-21
-4.48891e-22
-5e-05
8.49036e-20
-5e-05
-1.73332e-19
-5e-05
7.94345e-20
-5e-05
-3.66203e-21
-5e-05
2.89661e-21
-5e-05
-5.38133e-22
-5e-05
-2.23102e-21
-5e-05
3.01505e-21
-5e-05
1.31107e-20
-5e-05
1.23407e-20
-5e-05
1.05686e-20
-5e-05
-3.01341e-21
-5e-05
-1.08207e-20
-5e-05
-7.85978e-21
-5e-05
-2.79065e-21
-5e-05
6.28742e-22
-5e-05
2.63426e-21
-5e-05
8.69558e-21
-5e-05
2.51655e-21
7.10836e-22
-5e-05
-1.16884e-19
-5e-05
1.89031e-19
-5e-05
-7.8605e-20
-5e-05
1.34712e-20
-5e-05
7.6841e-21
-5e-05
4.61289e-21
-5e-05
7.41188e-21
-5e-05
5.84373e-21
-5e-05
8.47984e-22
-5e-05
-1.31155e-23
-5e-05
-6.29365e-21
-5e-05
-1.20994e-20
-5e-05
-4.20131e-21
-5e-05
7.66147e-21
-5e-05
4.41872e-21
-5e-05
3.51884e-21
-5e-05
2.14506e-21
-5e-05
-3.81451e-21
-5e-05
1.25806e-21
-3.324e-22
-5e-05
3.87751e-21
-5e-05
-3.30777e-20
-5e-05
2.71895e-20
-5e-05
5.48523e-21
-5e-05
2.59061e-21
-5e-05
7.08912e-21
-5e-05
6.99945e-21
-5e-05
1.31396e-21
-5e-05
-3.67666e-21
-5e-05
-8.95351e-22
-5e-05
-6.88448e-21
-5e-05
-2.76262e-21
-5e-05
-2.27594e-21
-5e-05
-2.4372e-21
-5e-05
8.45502e-22
-5e-05
5.09131e-21
-5e-05
2.41849e-21
-5e-05
3.38284e-21
-5e-05
5.0829e-21
2.45309e-21
-5e-05
-3.90466e-20
-5e-05
1.54613e-20
-5e-05
6.19977e-21
-5e-05
7.62593e-21
-5e-05
6.92529e-21
-5e-05
8.58722e-21
-5e-05
7.42587e-21
-5e-05
5.89252e-22
-5e-05
-1.59723e-21
-5e-05
2.34853e-21
-5e-05
6.35684e-21
-5e-05
-6.34304e-21
-5e-05
-5.58108e-21
-5e-05
-1.1204e-21
-5e-05
3.61004e-21
-5e-05
1.70129e-21
-5e-05
2.28978e-21
-5e-05
-1.59959e-21
-5e-05
-4.96262e-21
-3.95516e-21
-5e-05
-1.67335e-20
-5e-05
5.58266e-21
-5e-05
-2.26889e-20
-5e-05
2.20051e-21
-5e-05
4.01685e-21
-5e-05
-2.79422e-21
-5e-05
-4.00942e-21
-5e-05
7.32334e-23
-5e-05
5.85899e-21
-5e-05
3.67961e-21
-5e-05
1.19214e-21
-5e-05
1.44018e-21
-5e-05
-3.82828e-21
-5e-05
2.08438e-21
-5e-05
1.16538e-20
-5e-05
6.20637e-21
-5e-05
-3.93876e-22
-5e-05
4.45639e-22
-5e-05
2.69257e-21
3.21588e-21
-5e-05
-2.73016e-20
-5e-05
-3.2255e-20
-5e-05
5.99905e-20
-5e-05
2.08472e-21
-5e-05
-2.61401e-21
-5e-05
2.34008e-21
-5e-05
9.91659e-21
-5e-05
4.07805e-21
-5e-05
-4.56284e-21
-5e-05
-7.7776e-21
-5e-05
-1.0307e-20
-5e-05
-6.87951e-21
-5e-05
1.17156e-21
-5e-05
1.22944e-21
-5e-05
-2.7022e-21
-5e-05
-4.00553e-21
-5e-05
-2.63026e-21
-5e-05
1.70253e-22
-5e-05
-4.61287e-22
5.39208e-21
-5e-05
9.92165e-21
-5e-05
6.33587e-20
-5e-05
-4.70829e-20
-5e-05
-2.58128e-21
-5e-05
-2.21331e-21
-5e-05
1.40111e-21
-5e-05
-7.39007e-22
-5e-05
5.14548e-21
-5e-05
1.94931e-21
-5e-05
-8.37384e-21
-5e-05
-6.90301e-21
-5e-05
-2.98024e-21
-5e-05
-6.62585e-22
-5e-05
1.97717e-21
-5e-05
-4.53506e-21
-5e-05
-6.6464e-22
-5e-05
-1.31938e-22
-5e-05
-2.85599e-21
-5e-05
-9.36001e-21
-1.13603e-20
-5e-05
2.00618e-20
-5e-05
-8.0354e-21
-5e-05
2.09078e-20
-5e-05
3.38353e-21
-5e-05
3.67453e-21
-5e-05
2.37498e-21
-5e-05
-7.89982e-21
-5e-05
-1.31678e-20
-5e-05
-9.36851e-21
-5e-05
-7.22688e-21
-5e-05
1.83214e-21
-5e-05
4.41359e-21
-5e-05
-3.12705e-21
-5e-05
-8.54308e-21
-5e-05
-1.62659e-21
-5e-05
2.24874e-21
-5e-05
1.50809e-21
-5e-05
-1.50266e-21
-5e-05
-5.45223e-21
-4.88959e-21
-5e-05
9.09491e-20
-5e-05
-9.94533e-20
-5e-05
3.16597e-20
-5e-05
-6.50713e-21
-5e-05
-2.73383e-21
-5e-05
3.33402e-23
-5e-05
1.00154e-21
-5e-05
-6.30145e-21
-5e-05
-6.09542e-21
-5e-05
-1.68007e-21
-5e-05
-4.34432e-21
-5e-05
-3.92353e-21
-5e-05
1.68035e-21
-5e-05
1.04038e-21
-5e-05
7.51119e-22
-5e-05
-4.58357e-21
-5e-05
-3.17942e-21
-5e-05
-3.32226e-21
-5e-05
8.6547e-22
-3.45119e-22
-5e-05
-1.40365e-19
-5e-05
2.48702e-19
-5e-05
-8.16404e-20
-5e-05
1.11216e-20
-5e-05
-1.01297e-20
-5e-05
-1.37293e-20
-5e-05
-1.25791e-20
-5e-05
-7.80663e-21
-5e-05
-3.80237e-21
-5e-05
-3.34419e-21
-5e-05
-9.67646e-21
-5e-05
-2.94766e-21
-5e-05
3.98581e-21
-5e-05
3.345e-21
-5e-05
-2.28836e-22
-5e-05
4.80677e-21
-5e-05
3.01246e-21
-5e-05
1.75937e-21
-5e-05
9.60193e-22
-1.54479e-21
-5e-05
1.97058e-19
-5e-05
-2.56494e-19
-5e-05
8.6674e-20
-5e-05
-1.28241e-20
-5e-05
-4.56014e-21
-5e-05
-1.19773e-20
-5e-05
-1.30632e-20
-5e-05
-4.0761e-21
-5e-05
-1.93246e-22
-5e-05
-2.98344e-22
-5e-05
-1.72511e-21
-5e-05
4.67775e-21
-5e-05
7.89537e-21
-5e-05
3.36857e-21
-5e-05
3.10428e-21
-5e-05
-2.57775e-21
-5e-05
-6.22644e-21
-5e-05
-2.3695e-22
-5e-05
1.96552e-21
-1.13572e-21
-5e-05
2.47948e-19
-5e-05
-2.58478e-19
-5e-05
5.58367e-20
-5e-05
-1.78043e-20
-5e-05
2.63148e-21
-5e-05
-6.78899e-21
-5e-05
-7.2078e-21
-5e-05
-8.62592e-21
-5e-05
-5.81074e-21
-5e-05
-4.78516e-21
-5e-05
5.64059e-21
-5e-05
2.20107e-21
-5e-05
-4.44767e-21
-5e-05
2.01521e-21
-5e-05
2.7127e-21
-5e-05
-4.75195e-22
-5e-05
-2.51289e-21
-5e-05
-1.92451e-21
-5e-05
-2.43665e-21
3.37129e-21
-5e-05
-3.45607e-19
-5e-05
5.21859e-19
-5e-05
-1.42781e-19
-5e-05
2.0511e-20
-5e-05
-8.15024e-21
-5e-05
-4.01515e-21
-5e-05
-9.31093e-21
-5e-05
-8.03912e-21
-5e-05
-4.49199e-21
-5e-05
-3.39551e-21
-5e-05
1.9341e-21
-5e-05
2.63306e-21
-5e-05
-2.78564e-21
-5e-05
-6.29363e-21
-5e-05
-4.0041e-21
-5e-05
-5.06163e-21
-5e-05
-1.98046e-21
-5e-05
6.79569e-22
-5e-05
-5.78778e-22
-2.34326e-21
-5e-05
-5e-05
-5e-05
-5e-05
-5e-05
-5e-05
-5e-05
-5e-05
-5e-05
-5e-05
-5e-05
-5e-05
-5e-05
-5e-05
-5e-05
-5e-05
-5e-05
-5e-05
-5e-05
)
;

boundaryField
{
    movingWall
    {
        type            calculated;
        value           uniform 0;
    }
    fixedWalls
    {
        type            calculated;
        value           nonuniform List<scalar> 
60
(
5e-05
5e-05
5e-05
5e-05
5e-05
5e-05
5e-05
5e-05
5e-05
5e-05
5e-05
5e-05
5e-05
5e-05
5e-05
5e-05
5e-05
5e-05
5e-05
5e-05
-5e-05
-5e-05
-5e-05
-5e-05
-5e-05
-5e-05
-5e-05
-5e-05
-5e-05
-5e-05
-5e-05
-5e-05
-5e-05
-5e-05
-5e-05
-5e-05
-5e-05
-5e-05
-5e-05
-5e-05
0
0
0
0
0
0
0
0
0
0
0
0
0
0
0
0
0
0
0
0
)
;
    }
    frontAndBack
    {
        type            empty;
    }
}


// ************************************************************************* //
