/*--------------------------------*- C++ -*----------------------------------*\
| =========                 |                                                 |
| \\      /  F ield         | OpenFOAM: The Open Source CFD Toolbox           |
|  \\    /   O peration     | Version:  2506                                  |
|   \\  /    A nd           | Website:  www.openfoam.com                      |
|    \\/     M anipulation  |                                                 |
\*---------------------------------------------------------------------------*/
FoamFile
{
    version     2.0;
    format      ascii;
    arch        "LSB;label=32;scalar=64";
    class       volScalarField;
    location    "6";
    object      QField;
}
// * * * * * * * * * * * * * * * * * * * * * * * * * * * * * * * * * * * * * //

dimensions      [0 0 -2 0 0 0 0];

internalField   nonuniform List<scalar> 
400
(
-1.95458e-23
-6.42452e-24
-3.88355e-25
-1.83993e-26
-9.48542e-27
4.23795e-28
-1.03853e-27
-4.65677e-28
-3.5749e-28
-5.89947e-28
4.94763e-28
0
8.15246e-28
-2.89493e-28
-1.03702e-28
-8.70652e-28
0
-6.42786e-28
0
0
-3.91808e-23
-1.22412e-23
-6.14096e-25
1.29423e-26
3.29e-29
6.77421e-28
2.69557e-28
-1.14959e-28
0
0
-2.16706e-28
0
-3.28078e-28
-2.37819e-28
8.7139e-28
-1.30223e-28
-3.8411e-28
-3.63115e-28
0
-5.68797e-28
-3.96578e-23
-1.36674e-23
-8.1612e-26
-5.07815e-26
-1.14208e-27
-1.32396e-27
-4.85009e-29
1.196e-27
2.98324e-28
-2.2858e-28
-1.64937e-28
4.70797e-29
-2.76596e-28
2.35142e-28
5.84169e-28
-1.72968e-28
-1.28608e-27
-1.59072e-27
-1.31863e-28
-7.01572e-28
-2.49084e-23
-8.19295e-24
-2.50113e-25
-9.68548e-27
-6.36697e-27
2.67205e-27
1.47354e-27
4.47705e-28
-9.35512e-28
-3.92341e-29
2.33445e-28
0
-2.9829e-28
5.79897e-28
1.5412e-27
-2.43483e-27
-2.14316e-28
7.1729e-28
1.24338e-28
-2.98937e-28
-9.44505e-24
-3.66731e-24
-3.06476e-25
1.20926e-26
-4.17643e-27
-1.59201e-28
4.42e-28
-2.25729e-29
-5.70747e-28
-5.38229e-28
-3.87233e-28
-1.37244e-27
2.0637e-28
2.11886e-27
8.73411e-28
-1.43108e-28
-1.23983e-28
0
0
-3.14686e-28
-3.84531e-24
-3.07029e-24
1.28616e-25
-8.21715e-28
-1.73853e-27
1.28571e-28
6.2964e-30
0
-1.07652e-27
1.23718e-27
3.29401e-27
1.77161e-27
-5.00124e-28
3.77593e-28
0
-4.13738e-28
-7.59999e-28
4.59105e-28
2.40565e-28
0
2.35613e-24
-1.48982e-24
4.25759e-25
-2.0704e-26
8.45933e-27
-2.15181e-27
1.20089e-27
1.76639e-27
4.41098e-28
-1.17135e-27
3.10602e-28
-1.421e-27
-5.16298e-27
-1.97437e-29
1.08326e-27
1.08118e-27
3.30363e-28
-8.51429e-28
5.0778e-29
1.36567e-28
4.64936e-24
4.8835e-25
7.59964e-27
1.10117e-26
7.36238e-28
0
-2.7593e-28
0
-1.49973e-27
4.0761e-28
2.12688e-27
1.09723e-27
6.73068e-28
-1.64166e-27
-5.19485e-28
0
-1.54925e-28
-8.48521e-28
0
-1.51329e-28
4.88505e-24
3.06955e-25
1.16288e-25
1.04092e-26
6.57068e-27
-1.11083e-27
1.62274e-28
1.42848e-27
9.72683e-28
2.64209e-28
-1.04633e-28
1.01779e-27
4.09455e-28
-6.85435e-28
0
0
2.66113e-28
2.15669e-30
-3.99847e-29
5.33087e-29
6.70823e-24
1.28011e-24
2.62375e-25
1.71366e-26
-1.92101e-29
-6.14508e-29
9.98097e-28
6.99961e-28
-3.29233e-28
0
-2.13497e-27
8.09935e-28
1.70562e-28
-3.75743e-28
1.11809e-27
6.43474e-28
0
0
-5.37299e-28
0
7.63125e-24
1.52743e-24
8.97409e-26
4.36662e-26
-1.89911e-27
-3.89336e-28
-7.11527e-28
2.99697e-28
2.21434e-28
4.24805e-28
-4.35932e-28
5.00599e-28
3.33939e-28
1.4003e-27
-3.90383e-28
1.05489e-27
-2.54126e-29
-1.51722e-28
1.26271e-28
-2.70346e-28
9.21282e-24
1.42084e-24
6.70779e-26
-6.39645e-27
2.452e-27
-3.67757e-28
1.91075e-28
-2.68888e-28
-7.16105e-28
-2.54681e-27
-2.15357e-27
1.43888e-28
6.23892e-28
1.24537e-27
-1.28006e-27
-1.92312e-27
4.07333e-28
5.25622e-28
-3.49359e-28
1.34737e-28
1.24217e-23
2.49138e-24
6.48539e-26
2.08783e-26
0
0
-5.42584e-28
9.22508e-28
5.89602e-27
2.95308e-27
-1.58211e-27
-9.24744e-28
0
2.01932e-27
-6.40699e-28
-7.17179e-28
-7.50908e-29
6.11202e-28
-7.97903e-28
-1.13557e-27
7.52774e-24
7.56106e-25
1.80576e-25
-8.86399e-27
8.73083e-27
1.75417e-28
3.47237e-28
-2.94661e-27
-2.80618e-28
0
-1.12471e-27
-2.3918e-30
5.17608e-28
-2.69509e-28
-2.7224e-28
-4.47288e-28
7.62902e-28
5.82304e-28
1.25009e-28
2.32869e-29
-1.58015e-24
-1.65953e-24
1.69587e-25
-5.443e-28
4.54836e-27
0
6.21676e-28
5.59144e-28
1.65604e-28
0
-4.53672e-28
1.79426e-28
-4.9248e-28
-7.10196e-28
2.86943e-28
-3.23222e-28
4.392e-29
1.06829e-28
-1.12733e-28
-1.05967e-28
-6.21449e-24
-2.89465e-24
8.49885e-27
-2.38862e-27
0
-3.33202e-27
-1.42238e-27
0
-6.10959e-28
2.56921e-28
-2.9828e-28
0
5.93333e-28
-3.42777e-28
1.39447e-28
-3.23763e-28
5.61425e-29
-3.10079e-28
0
0
-8.96197e-24
-3.30562e-24
-2.29438e-25
1.74244e-27
5.5281e-29
1.75302e-28
1.31078e-27
1.43038e-27
2.19018e-28
0
-6.08903e-28
1.19445e-27
2.37054e-28
0
0
-7.89305e-30
0
3.75846e-29
0
0
-1.75911e-23
-6.7231e-24
6.1283e-26
-4.03956e-26
7.29186e-27
-2.74145e-27
2.15113e-28
9.66536e-28
1.41059e-29
2.54053e-28
-1.1698e-27
3.09931e-28
-3.67522e-28
0
0
8.12952e-28
0
6.06734e-28
-1.40111e-28
-1.32302e-28
-2.56817e-23
-7.90481e-24
-1.79247e-25
-2.14768e-26
3.83712e-27
1.88283e-27
1.03309e-27
-1.4063e-27
-2.05355e-27
-6.88088e-28
-3.32249e-28
1.15214e-27
5.23771e-28
-6.18835e-28
-8.81175e-28
1.03389e-28
0
-1.46565e-28
-1.52406e-28
-4.51565e-29
-1.39521e-23
-3.76759e-24
-4.24864e-25
2.65717e-26
-4.661e-27
1.30117e-27
-2.07169e-27
-1.43615e-27
9.11968e-29
-4.74773e-29
8.55391e-29
-1.51876e-28
-4.4104e-28
0
0
3.1141e-29
-1.91148e-28
1.34918e-28
-1.56867e-29
1.38569e-28
)
;

boundaryField
{
    movingWall
    {
        type            calculated;
        value           nonuniform List<scalar> 
20
(
4.66153e-24
3.2512e-24
-1.19778e-24
1.7246e-25
-3.43647e-26
6.39551e-27
-2.89277e-27
9.16417e-29
4.48251e-28
1.09296e-27
2.80294e-28
-2.24036e-27
-3.32128e-27
3.17172e-29
2.51227e-28
-1.27585e-28
-9.93702e-29
1.21513e-28
-2.57011e-29
3.98196e-29
)
;
    }
    fixedWalls
    {
        type            calculated;
        value           nonuniform List<scalar> 
60
(
-1.11837e-22
-2.15129e-22
-2.02351e-22
-1.32696e-22
-6.26855e-23
-2.53049e-23
1.07117e-23
1.49397e-23
1.97761e-23
3.36812e-23
3.94595e-23
4.40809e-23
5.59904e-23
3.70962e-23
-8.08652e-24
-3.79263e-23
-5.68393e-23
-8.96911e-23
-1.36422e-22
-7.94351e-23
0
-9.31918e-28
-1.36236e-27
-4.89778e-28
-3.41771e-28
0
1.98543e-29
-7.72916e-29
0
0
-3.44666e-28
2.20753e-28
0
3.81532e-29
8.06874e-29
0
0
-2.16764e-28
1.91467e-28
1.87212e-28
7.99364e-24
6.16376e-24
-1.61035e-24
6.05985e-26
-3.62621e-26
1.50641e-27
-3.14985e-27
-1.19492e-27
-9.87621e-28
-9.74871e-28
7.8108e-28
-5.14915e-28
4.76037e-28
-2.83962e-28
0
-3.38974e-28
-1.91991e-27
-2.00467e-27
-3.37018e-28
0
)
;
    }
    frontAndBack
    {
        type            empty;
    }
}


// ************************************************************************* //
