/*--------------------------------*- C++ -*----------------------------------*\
| =========                 |                                                 |
| \\      /  F ield         | OpenFOAM: The Open Source CFD Toolbox           |
|  \\    /   O peration     | Version:  2506                                  |
|   \\  /    A nd           | Website:  www.openfoam.com                      |
|    \\/     M anipulation  |                                                 |
\*---------------------------------------------------------------------------*/
FoamFile
{
    version     2.0;
    format      ascii;
    arch        "LSB;label=32;scalar=64";
    class       surfaceScalarField;
    location    "6";
    object      surfaceDivU;
}
// * * * * * * * * * * * * * * * * * * * * * * * * * * * * * * * * * * * * * //

dimensions      [0 0 -1 0 0 0 0];

internalField   nonuniform List<scalar> 
760
(
5.90457e-12
-4.37747e-12
-6.71532e-13
6.14017e-13
1.04735e-13
-1.83672e-13
-3.92212e-14
9.11437e-14
1.27712e-15
-5.40538e-15
-1.52068e-14
-1.97101e-14
5.85814e-17
2.44533e-14
8.6345e-16
6.65676e-15
-2.17923e-14
-1.28613e-15
9.89616e-15
-1.4637e-14
3.27867e-14
3.5631e-14
-3.13633e-14
3.24176e-15
-9.31857e-15
-3.51258e-14
2.66194e-14
1.02723e-14
-1.57267e-14
2.63718e-14
-2.10808e-14
-1.85309e-14
1.91703e-14
-1.04791e-14
2.24478e-14
-2.31771e-14
1.2714e-15
-6.20943e-15
1.35525e-14
-9.66802e-12
-8.68717e-12
1.10188e-12
1.01442e-12
-1.97263e-13
-2.64629e-13
1.24959e-13
1.30101e-13
-2.63926e-14
-7.29157e-15
1.995e-14
-3.83661e-14
3.10515e-14
2.41404e-14
4.50718e-15
3.43756e-15
5.86916e-15
2.19737e-15
1.10979e-14
-1.09283e-15
6.08615e-15
5.49873e-15
-5.20745e-16
4.95223e-15
-1.55349e-14
-8.82865e-15
1.00247e-14
-5.66215e-15
2.35677e-14
1.42966e-14
-7.92916e-15
-1.15564e-14
-5.28265e-14
4.90966e-15
-5.18343e-14
-2.62593e-14
6.0717e-15
6.02646e-15
-3.15544e-29
1.99527e-12
7.92823e-12
-3.52082e-13
-9.02176e-13
6.27346e-14
1.47361e-13
-2.15026e-15
-8.69492e-14
-1.92651e-14
2.03776e-14
-3.41757e-14
-3.66188e-14
-3.47346e-15
-2.41758e-17
1.12775e-15
-5.33757e-15
-4.76462e-15
1.50784e-14
-6.69196e-15
-1.94136e-15
4.3648e-15
-1.05589e-14
-3.35567e-15
9.16009e-15
1.0441e-15
3.9705e-15
-1.39029e-15
-1.63563e-14
-2.08275e-14
-1.55949e-14
1.28242e-15
1.44366e-14
3.14768e-14
1.91343e-14
3.16014e-14
8.065e-15
-4.5247e-17
2.93082e-14
-1.35525e-14
5.03078e-12
-1.58565e-12
-4.02733e-13
5.34943e-13
-2.32284e-15
-9.5883e-14
-6.44213e-14
3.87052e-14
3.02392e-15
9.87811e-15
-2.46729e-15
-1.99011e-15
-1.88828e-15
1.24118e-14
8.61304e-15
-1.87603e-14
1.79016e-14
5.57262e-15
-5.8083e-15
1.91945e-14
-5.76361e-15
-1.98823e-14
1.64863e-14
1.10121e-14
-1.34299e-14
9.07911e-16
-3.05609e-14
-9.07878e-15
1.96692e-14
-2.33977e-15
3.22885e-14
-1.12322e-15
-4.27746e-15
3.48061e-14
5.77179e-15
-3.19194e-15
1.58009e-14
2.67872e-14
-2.71051e-14
-6.08148e-12
-2.64274e-12
8.41794e-13
1.41056e-13
-5.4855e-14
8.98434e-15
1.13005e-13
2.09106e-14
4.86409e-15
1.72672e-14
1.28889e-14
-1.25257e-14
-4.46026e-15
1.13745e-14
-2.18007e-14
-9.55996e-15
6.86555e-15
-1.34019e-14
5.12052e-15
3.16681e-14
-3.1066e-15
-7.14883e-15
-4.56623e-15
2.0638e-14
5.25904e-15
-8.3155e-16
1.91423e-14
-4.84139e-15
-2.31322e-14
9.82475e-15
1.39438e-15
-3.06859e-14
3.58916e-14
2.73214e-14
1.78235e-14
8.93314e-15
-1.61188e-14
1.44555e-14
-2.71051e-14
3.5798e-12
6.50521e-12
-6.91754e-13
-1.21998e-12
8.47499e-14
2.47704e-13
-7.48268e-14
-1.09255e-13
-1.22583e-16
3.06494e-14
-1.40401e-14
2.97475e-15
6.27479e-15
-8.75056e-15
-1.16117e-15
4.46796e-15
1.14006e-14
1.182e-14
1.93987e-14
6.55691e-15
1.65957e-14
-1.77881e-14
2.43726e-14
5.48456e-15
-1.0932e-14
3.38954e-14
-1.4159e-14
-2.7523e-14
2.2711e-15
1.54434e-14
-4.75889e-15
2.03835e-15
3.62884e-16
5.84534e-15
5.56518e-15
-1.83268e-14
3.46924e-15
2.14277e-14
-1.35525e-14
1.70544e-12
-4.5672e-12
-2.80518e-13
1.00122e-12
5.36986e-14
-2.06414e-13
-3.7789e-15
8.1268e-14
3.37467e-14
-7.59219e-15
8.26429e-15
2.38949e-14
-1.05574e-14
-2.88783e-14
1.74491e-14
-8.33882e-15
6.97625e-15
3.80458e-14
-3.06299e-14
-9.37743e-15
-2.88993e-14
-1.43401e-14
1.50073e-14
-1.24408e-15
1.73044e-14
2.90934e-14
2.07935e-15
-2.90634e-14
1.52106e-14
2.77062e-15
1.26426e-14
1.04752e-14
-1.28444e-14
-3.83496e-15
-2.46431e-15
2.17624e-14
4.40593e-15
2.4176e-14
-1.35525e-14
-5.27143e-12
-1.54499e-12
1.07532e-12
1.91266e-13
-1.78844e-13
-5.56458e-14
7.74547e-14
6.10612e-15
-1.7444e-14
1.52356e-14
-1.32477e-14
1.94194e-14
-2.66598e-14
-2.00626e-14
1.22579e-14
-1.82478e-14
2.16921e-14
1.29295e-14
6.91237e-15
6.84685e-16
1.33151e-14
9.66488e-15
1.2842e-14
-1.19786e-15
-1.72744e-14
-1.98399e-15
-2.83721e-14
5.89543e-15
-1.96479e-15
-2.3874e-15
-6.00234e-15
1.34972e-14
3.07718e-14
-5.84357e-15
4.84028e-14
3.01205e-14
6.21756e-15
7.93945e-15
-1.35525e-14
3.9177e-12
4.03865e-12
-9.39702e-13
-9.33584e-13
1.29305e-13
1.83655e-13
-5.6113e-14
-7.20395e-14
5.2099e-14
2.4894e-14
1.26045e-14
-5.23216e-16
-1.16506e-14
-2.06501e-15
-1.75761e-14
4.06479e-15
-8.07791e-15
-2.0001e-14
3.43719e-15
4.11208e-15
-4.84804e-15
-1.659e-14
-1.60238e-14
8.53529e-15
2.11858e-14
-1.63325e-14
3.18802e-14
2.32269e-14
1.30746e-14
7.34855e-17
1.3656e-14
1.67797e-14
-6.49489e-15
1.01091e-14
-1.03428e-14
-1.32012e-14
-1.18306e-14
2.55931e-14
-1.35525e-14
-8.12634e-13
-3.11708e-12
1.89774e-13
9.48617e-13
-1.76889e-14
-1.81105e-13
8.96745e-15
7.50306e-14
-2.77282e-14
-2.55927e-14
-1.51927e-14
-1.24571e-14
1.36503e-14
1.7538e-15
1.63987e-15
3.23202e-14
-7.81106e-15
-5.02613e-14
-1.59151e-14
1.03307e-14
-3.20668e-15
-1.87508e-14
8.22667e-15
2.84205e-14
-1.42915e-14
-1.66828e-15
-8.57982e-15
-9.71459e-15
3.77859e-15
-1.66236e-14
1.32328e-14
-1.52109e-17
3.40273e-15
1.64761e-14
2.27347e-14
-1.30268e-14
2.38712e-14
2.71625e-14
-1.35525e-14
-1.35583e-12
2.38524e-12
5.77738e-13
-6.18515e-13
-8.83857e-14
6.19252e-14
4.04704e-14
-6.82156e-14
-1.03215e-14
4.55014e-14
4.48945e-15
-2.46589e-14
2.04237e-14
-1.39835e-14
-1.9581e-14
1.10771e-14
-3.21196e-14
-2.36418e-14
7.49503e-15
1.74692e-14
1.28764e-14
1.40546e-14
1.85255e-14
1.64646e-14
2.90858e-15
-4.71314e-15
-1.77584e-14
-1.62109e-14
-2.04174e-14
-1.12844e-14
3.22808e-15
1.64261e-14
4.65326e-17
9.48862e-15
-8.59898e-15
-1.06632e-14
-1.02612e-14
1.54854e-14
-2.71051e-14
3.12256e-12
-9.21572e-13
-1.13433e-12
2.64123e-13
8.20953e-14
-1.06533e-13
-6.31846e-14
-1.77157e-14
3.1164e-14
4.80847e-14
-4.31318e-14
-2.16528e-14
-2.33301e-14
-1.82691e-14
7.01629e-15
9.19249e-15
2.59471e-14
-3.33526e-14
2.40289e-14
2.19629e-14
1.76429e-14
1.00678e-14
-6.77404e-15
-1.11614e-14
-2.38326e-14
-1.49333e-14
-9.73682e-15
-4.18281e-14
2.55592e-14
1.83225e-14
2.26867e-14
2.35758e-14
-1.22115e-15
-4.02548e-15
1.34212e-14
-6.67593e-15
-1.35841e-15
9.66952e-15
-6.31089e-29
-3.78001e-12
-1.95156e-12
1.29192e-12
6.33054e-13
-2.06344e-13
-1.24168e-13
9.35536e-14
1.3872e-14
-4.73212e-15
1.07297e-14
3.20988e-15
-6.91096e-15
1.42534e-14
3.71369e-15
-3.11764e-14
4.04371e-14
-3.73368e-14
-4.36415e-14
8.00184e-15
1.38793e-14
-1.87365e-14
-7.838e-16
-1.93207e-14
-3.21909e-14
-3.29289e-14
-6.81232e-15
-1.37688e-14
-1.24402e-14
1.63391e-14
4.17425e-14
-3.13632e-15
-1.48591e-14
-9.48026e-15
-1.07166e-15
-1.04276e-14
-3.24369e-16
1.10279e-14
-1.41841e-14
-1.32529e-28
2.4615e-12
3.55076e-12
-7.83032e-13
-7.77347e-13
9.60478e-14
1.52094e-13
-6.89519e-14
-5.94678e-14
8.55089e-15
1.99946e-14
-6.40715e-15
-1.20517e-14
2.98974e-14
-2.2823e-15
2.79721e-14
7.45969e-15
7.57463e-15
-1.18577e-14
5.09368e-15
1.1924e-14
-1.42382e-14
4.9716e-15
-1.96825e-14
-4.85532e-15
1.36764e-14
-3.11389e-14
4.30712e-14
4.34636e-15
1.05443e-14
2.30868e-14
-1.27945e-14
1.08029e-14
8.08424e-15
-1.12384e-15
-4.08092e-15
1.99749e-14
-2.5212e-14
2.28311e-15
-1.35525e-14
3.11916e-13
-4.07931e-12
1.57779e-13
7.52355e-13
-3.42159e-15
-1.41025e-13
2.94787e-14
6.08893e-14
-6.08042e-16
-2.48213e-14
-7.92684e-15
1.74806e-14
-2.472e-14
8.20985e-16
-3.237e-14
-1.69832e-14
-7.50831e-15
-2.1154e-14
1.18019e-14
1.38578e-14
1.43544e-14
1.82056e-14
-1.63117e-14
8.34671e-15
-4.04689e-14
-1.50543e-14
-1.5638e-14
-2.34377e-14
2.33455e-14
1.46097e-14
2.24736e-14
1.21025e-14
1.07669e-14
-3.10186e-15
2.6339e-14
-3.5558e-17
1.39426e-14
1.66067e-14
0
-3.63887e-12
2.33103e-12
4.53552e-13
-3.86121e-13
-7.67137e-14
7.33978e-14
6.58929e-15
-4.72539e-14
-6.73272e-15
-1.59833e-14
2.62284e-14
8.33267e-15
8.55777e-15
-9.00747e-16
-5.76717e-15
5.44349e-15
2.12076e-16
3.91035e-15
2.02615e-14
2.17352e-15
1.21979e-14
-4.69904e-15
9.60412e-15
4.32215e-15
1.97688e-15
-2.17757e-14
6.80998e-15
-1.74111e-15
3.36674e-15
2.12146e-14
-1.34729e-14
1.65837e-14
-1.39043e-14
-6.22613e-15
-9.76784e-15
-1.18188e-14
2.66406e-15
4.19975e-15
0
5.58378e-12
4.97378e-12
-7.66275e-13
-3.7475e-13
1.02858e-13
5.61245e-14
-6.98265e-14
-5.11108e-15
-9.17891e-16
-1.4169e-14
-1.87965e-14
1.18288e-15
-4.01503e-15
-1.51933e-14
1.5121e-14
3.3908e-16
5.8718e-15
1.50742e-14
-2.2787e-14
1.6396e-14
-1.25748e-14
-3.84169e-14
-2.70576e-14
3.88628e-14
-2.54937e-14
-3.29642e-14
1.26636e-14
-3.95053e-15
3.44316e-14
8.49006e-15
2.38305e-14
1.0247e-14
-4.14064e-15
-1.27506e-14
2.14881e-15
-2.09717e-15
1.53569e-15
1.40393e-14
-1.35525e-14
-9.84757e-13
-8.95822e-12
4.47649e-13
1.27537e-12
-5.18442e-14
-3.21183e-13
5.05464e-14
1.53009e-13
-1.20682e-14
-2.90328e-14
4.78599e-15
1.52545e-14
-1.08392e-14
2.42837e-15
2.92257e-16
-6.4554e-15
2.55984e-14
8.00737e-15
7.66e-16
1.64508e-14
1.30206e-14
-1.36551e-14
3.29563e-14
2.28597e-14
-1.1421e-14
-8.79006e-15
-8.12402e-15
-5.84387e-15
-1.56946e-14
2.4263e-14
-2.63342e-14
-2.54945e-14
-1.07071e-14
2.02961e-15
9.79334e-15
-5.19907e-15
-1.04891e-15
9.11448e-15
-1.35525e-14
-6.69809e-12
-1.76183e-12
5.0654e-13
-7.09053e-14
-1.1633e-13
-5.31368e-15
7.34299e-14
-2.5959e-15
-1.71002e-15
8.26313e-15
1.28969e-14
1.71319e-14
6.8122e-15
-4.23502e-15
1.25971e-15
-1.60578e-14
-1.1402e-15
1.73175e-14
2.02966e-15
-1.84577e-14
-3.81603e-15
-6.61765e-15
-1.88867e-14
2.80162e-15
-3.2129e-15
-8.13575e-15
2.65432e-14
1.84754e-14
1.44631e-14
2.16203e-14
2.86923e-15
-7.15724e-15
7.53768e-15
-3.52606e-15
-5.87793e-15
1.10637e-14
-3.38914e-15
-3.38914e-15
-1.35525e-14
4.86536e-12
-5.82759e-13
1.0842e-13
-6.77626e-14
2.71051e-14
3.78653e-29
-2.71051e-14
8.20415e-29
-9.46633e-30
-2.71051e-14
6.31089e-30
1.35525e-14
1.35525e-14
1.35525e-14
0
-1.35525e-14
7.57306e-29
1.35525e-14
-1.35525e-14
)
;

boundaryField
{
    movingWall
    {
        type            calculated;
        value           nonuniform List<scalar> 
20
(
1.12757e-11
-1.54499e-12
3.79471e-13
-1.6263e-13
2.71051e-14
2.71051e-14
-2.71051e-14
-2.71051e-14
2.71051e-14
-2.71051e-14
-2.71051e-14
2.71051e-14
0
2.71051e-14
0
0
-2.71051e-14
2.71051e-14
0
-2.71051e-14
)
;
    }
    fixedWalls
    {
        type            calculated;
        value           nonuniform List<scalar> 
60
(
1.34712e-11
-2.22261e-11
4.8518e-12
1.10047e-11
-1.41759e-11
8.89046e-12
4.11997e-12
-1.32544e-11
1.01644e-11
-2.08709e-12
-4.14707e-12
8.91756e-12
-1.07607e-11
6.85758e-12
2.43945e-13
-8.40257e-12
1.30646e-11
-3.11708e-12
-1.47994e-11
1.12757e-11
0
2.71051e-14
-2.71051e-14
0
-5.42101e-14
0
-2.71051e-14
0
-2.71051e-14
0
-2.71051e-14
-2.71051e-14
2.71051e-14
-2.71051e-14
0
0
0
-2.71051e-14
0
-2.71051e-14
1.34712e-11
-1.66208e-12
3.19013e-13
-1.09543e-13
3.1101e-14
-2.85467e-14
-1.86686e-15
1.98403e-15
-2.57128e-16
-4.33275e-14
6.31198e-14
2.45347e-15
-6.51801e-14
4.65429e-14
6.69593e-15
-3.81494e-14
-4.01214e-15
4.23528e-14
2.54279e-15
0
)
;
    }
    frontAndBack
    {
        type            empty;
    }
}


// ************************************************************************* //
