/*--------------------------------*- C++ -*----------------------------------*\
| =========                 |                                                 |
| \\      /  F ield         | OpenFOAM: The Open Source CFD Toolbox           |
|  \\    /   O peration     | Version:  2506                                  |
|   \\  /    A nd           | Website:  www.openfoam.com                      |
|    \\/     M anipulation  |                                                 |
\*---------------------------------------------------------------------------*/
FoamFile
{
    version     2.0;
    format      ascii;
    arch        "LSB;label=32;scalar=64";
    class       surfaceScalarField;
    location    "6";
    object      surfaceK;
}
// * * * * * * * * * * * * * * * * * * * * * * * * * * * * * * * * * * * * * //

dimensions      [0 2 -2 0 0 0 0];

internalField   nonuniform List<scalar> 
760
(
8.69759e-06
8.91846e-06
8.69758e-06
8.91846e-06
8.69758e-06
8.91812e-06
8.69757e-06
8.918e-06
8.69756e-06
8.91779e-06
8.69756e-06
8.91766e-06
8.69755e-06
8.91749e-06
8.69755e-06
8.91738e-06
8.69754e-06
8.91723e-06
8.69754e-06
8.91714e-06
8.69754e-06
8.91702e-06
8.69753e-06
8.91694e-06
8.69753e-06
8.91685e-06
8.69753e-06
8.91679e-06
8.69753e-06
8.91673e-06
8.69753e-06
8.91668e-06
8.69753e-06
8.91665e-06
8.69753e-06
8.91662e-06
8.69753e-06
8.91661e-06
8.9166e-06
9.13933e-06
9.45238e-06
9.139e-06
9.45238e-06
9.13854e-06
9.45166e-06
9.13822e-06
9.4514e-06
9.13789e-06
9.45096e-06
9.1376e-06
9.45068e-06
9.13732e-06
9.45033e-06
9.13706e-06
9.45007e-06
9.13682e-06
9.44979e-06
9.13662e-06
9.44955e-06
9.13642e-06
9.44934e-06
9.13626e-06
9.44913e-06
9.13611e-06
9.44898e-06
9.13598e-06
9.44881e-06
9.13588e-06
9.44871e-06
9.1358e-06
9.44859e-06
9.13574e-06
9.44854e-06
9.1357e-06
9.44848e-06
9.13568e-06
9.44845e-06
9.44844e-06
9.76543e-06
1.00509e-05
9.76504e-06
1.00509e-05
9.76452e-06
1.00501e-05
9.76414e-06
1.00498e-05
9.76375e-06
1.00493e-05
9.76341e-06
1.0049e-05
9.76308e-06
1.00486e-05
9.76279e-06
1.00483e-05
9.76251e-06
1.0048e-05
9.76227e-06
1.00477e-05
9.76205e-06
1.00475e-05
9.76186e-06
1.00472e-05
9.76169e-06
1.00471e-05
9.76154e-06
1.00469e-05
9.76143e-06
1.00468e-05
9.76133e-06
1.00466e-05
9.76127e-06
1.00466e-05
9.76122e-06
1.00465e-05
9.7612e-06
1.00465e-05
1.00464e-05
1.03364e-05
1.05444e-05
1.0336e-05
1.05444e-05
1.03354e-05
1.05435e-05
1.0335e-05
1.05432e-05
1.03346e-05
1.05426e-05
1.03342e-05
1.05423e-05
1.03338e-05
1.05418e-05
1.03335e-05
1.05415e-05
1.03332e-05
1.05411e-05
1.03329e-05
1.05409e-05
1.03327e-05
1.05406e-05
1.03324e-05
1.05404e-05
1.03322e-05
1.05401e-05
1.03321e-05
1.054e-05
1.0332e-05
1.05398e-05
1.03319e-05
1.05397e-05
1.03318e-05
1.05396e-05
1.03317e-05
1.05395e-05
1.03317e-05
1.05395e-05
1.05395e-05
1.07524e-05
1.08857e-05
1.07519e-05
1.08857e-05
1.07513e-05
1.08848e-05
1.07508e-05
1.08844e-05
1.07504e-05
1.08838e-05
1.07499e-05
1.08835e-05
1.07495e-05
1.08829e-05
1.07492e-05
1.08826e-05
1.07488e-05
1.08822e-05
1.07486e-05
1.08819e-05
1.07483e-05
1.08816e-05
1.0748e-05
1.08814e-05
1.07478e-05
1.08811e-05
1.07477e-05
1.0881e-05
1.07475e-05
1.08808e-05
1.07474e-05
1.08807e-05
1.07473e-05
1.08806e-05
1.07473e-05
1.08805e-05
1.07473e-05
1.08805e-05
1.08804e-05
1.10191e-05
1.10993e-05
1.10186e-05
1.10993e-05
1.10179e-05
1.10983e-05
1.10174e-05
1.1098e-05
1.10169e-05
1.10973e-05
1.10165e-05
1.10969e-05
1.1016e-05
1.10965e-05
1.10157e-05
1.10961e-05
1.10153e-05
1.10957e-05
1.1015e-05
1.10954e-05
1.10147e-05
1.10951e-05
1.10145e-05
1.10948e-05
1.10143e-05
1.10946e-05
1.10141e-05
1.10943e-05
1.10139e-05
1.10942e-05
1.10138e-05
1.1094e-05
1.10137e-05
1.1094e-05
1.10137e-05
1.10939e-05
1.10137e-05
1.10938e-05
1.10938e-05
1.11796e-05
1.12278e-05
1.11791e-05
1.12278e-05
1.11784e-05
1.12268e-05
1.11779e-05
1.12264e-05
1.11774e-05
1.12258e-05
1.11769e-05
1.12254e-05
1.11765e-05
1.12249e-05
1.11761e-05
1.12245e-05
1.11757e-05
1.12241e-05
1.11754e-05
1.12237e-05
1.11751e-05
1.12235e-05
1.11749e-05
1.12232e-05
1.11747e-05
1.12229e-05
1.11745e-05
1.12227e-05
1.11743e-05
1.12226e-05
1.11742e-05
1.12224e-05
1.11741e-05
1.12223e-05
1.1174e-05
1.12222e-05
1.1174e-05
1.12222e-05
1.12222e-05
1.1276e-05
1.1307e-05
1.12755e-05
1.1307e-05
1.12748e-05
1.13059e-05
1.12743e-05
1.13055e-05
1.12738e-05
1.13049e-05
1.12733e-05
1.13045e-05
1.12729e-05
1.1304e-05
1.12725e-05
1.13036e-05
1.12721e-05
1.13032e-05
1.12718e-05
1.13028e-05
1.12715e-05
1.13025e-05
1.12712e-05
1.13022e-05
1.1271e-05
1.1302e-05
1.12708e-05
1.13018e-05
1.12706e-05
1.13016e-05
1.12705e-05
1.13015e-05
1.12704e-05
1.13014e-05
1.12704e-05
1.13013e-05
1.12703e-05
1.13013e-05
1.13012e-05
1.13379e-05
1.13604e-05
1.13374e-05
1.13604e-05
1.13366e-05
1.13594e-05
1.13362e-05
1.1359e-05
1.13356e-05
1.13583e-05
1.13351e-05
1.13579e-05
1.13347e-05
1.13574e-05
1.13343e-05
1.1357e-05
1.13339e-05
1.13566e-05
1.13336e-05
1.13563e-05
1.13333e-05
1.1356e-05
1.1333e-05
1.13557e-05
1.13328e-05
1.13554e-05
1.13326e-05
1.13552e-05
1.13324e-05
1.13551e-05
1.13323e-05
1.13549e-05
1.13322e-05
1.13548e-05
1.13322e-05
1.13547e-05
1.13321e-05
1.13547e-05
1.13547e-05
1.1383e-05
1.14021e-05
1.13825e-05
1.14021e-05
1.13817e-05
1.1401e-05
1.13812e-05
1.14007e-05
1.13807e-05
1.14e-05
1.13802e-05
1.13996e-05
1.13798e-05
1.13991e-05
1.13794e-05
1.13987e-05
1.1379e-05
1.13983e-05
1.13786e-05
1.13979e-05
1.13783e-05
1.13976e-05
1.13781e-05
1.13973e-05
1.13778e-05
1.13971e-05
1.13777e-05
1.13968e-05
1.13775e-05
1.13967e-05
1.13774e-05
1.13965e-05
1.13773e-05
1.13964e-05
1.13772e-05
1.13963e-05
1.13772e-05
1.13963e-05
1.13963e-05
1.14212e-05
1.14397e-05
1.14207e-05
1.14397e-05
1.142e-05
1.14386e-05
1.14195e-05
1.14382e-05
1.14189e-05
1.14375e-05
1.14184e-05
1.14371e-05
1.1418e-05
1.14366e-05
1.14176e-05
1.14362e-05
1.14172e-05
1.14358e-05
1.14169e-05
1.14354e-05
1.14166e-05
1.14351e-05
1.14163e-05
1.14348e-05
1.14161e-05
1.14346e-05
1.14159e-05
1.14343e-05
1.14157e-05
1.14342e-05
1.14156e-05
1.1434e-05
1.14155e-05
1.14339e-05
1.14154e-05
1.14338e-05
1.14154e-05
1.14338e-05
1.14338e-05
1.14581e-05
1.14774e-05
1.14575e-05
1.14774e-05
1.14568e-05
1.14763e-05
1.14563e-05
1.14759e-05
1.14557e-05
1.14752e-05
1.14553e-05
1.14748e-05
1.14548e-05
1.14743e-05
1.14544e-05
1.14739e-05
1.1454e-05
1.14735e-05
1.14537e-05
1.14731e-05
1.14534e-05
1.14728e-05
1.14531e-05
1.14725e-05
1.14529e-05
1.14723e-05
1.14527e-05
1.1472e-05
1.14525e-05
1.14719e-05
1.14524e-05
1.14717e-05
1.14523e-05
1.14716e-05
1.14522e-05
1.14715e-05
1.14522e-05
1.14715e-05
1.14715e-05
1.14966e-05
1.15178e-05
1.14961e-05
1.15178e-05
1.14954e-05
1.15167e-05
1.14948e-05
1.15163e-05
1.14943e-05
1.15156e-05
1.14938e-05
1.15152e-05
1.14934e-05
1.15147e-05
1.1493e-05
1.15143e-05
1.14926e-05
1.15139e-05
1.14922e-05
1.15135e-05
1.14919e-05
1.15132e-05
1.14917e-05
1.15129e-05
1.14914e-05
1.15127e-05
1.14912e-05
1.15124e-05
1.14911e-05
1.15123e-05
1.14909e-05
1.15121e-05
1.14908e-05
1.1512e-05
1.14908e-05
1.15119e-05
1.14907e-05
1.15119e-05
1.15119e-05
1.15389e-05
1.15626e-05
1.15384e-05
1.15626e-05
1.15377e-05
1.15615e-05
1.15371e-05
1.15611e-05
1.15366e-05
1.15604e-05
1.15361e-05
1.156e-05
1.15356e-05
1.15595e-05
1.15352e-05
1.1559e-05
1.15348e-05
1.15586e-05
1.15345e-05
1.15583e-05
1.15342e-05
1.1558e-05
1.15339e-05
1.15576e-05
1.15337e-05
1.15574e-05
1.15335e-05
1.15571e-05
1.15333e-05
1.1557e-05
1.15332e-05
1.15568e-05
1.15331e-05
1.15567e-05
1.1533e-05
1.15566e-05
1.1533e-05
1.15566e-05
1.15566e-05
1.15862e-05
1.16126e-05
1.15857e-05
1.16125e-05
1.15849e-05
1.16115e-05
1.15844e-05
1.16111e-05
1.15838e-05
1.16104e-05
1.15833e-05
1.16099e-05
1.15829e-05
1.16094e-05
1.15825e-05
1.1609e-05
1.15821e-05
1.16086e-05
1.15817e-05
1.16082e-05
1.15814e-05
1.16079e-05
1.15811e-05
1.16076e-05
1.15809e-05
1.16073e-05
1.15807e-05
1.16071e-05
1.15805e-05
1.16069e-05
1.15804e-05
1.16068e-05
1.15803e-05
1.16067e-05
1.15802e-05
1.16066e-05
1.15802e-05
1.16065e-05
1.16065e-05
1.16389e-05
1.16671e-05
1.16383e-05
1.16671e-05
1.16376e-05
1.16661e-05
1.1637e-05
1.16656e-05
1.16365e-05
1.16649e-05
1.1636e-05
1.16645e-05
1.16355e-05
1.16639e-05
1.16351e-05
1.16636e-05
1.16347e-05
1.16631e-05
1.16344e-05
1.16628e-05
1.1634e-05
1.16624e-05
1.16338e-05
1.16621e-05
1.16335e-05
1.16619e-05
1.16333e-05
1.16616e-05
1.16331e-05
1.16614e-05
1.1633e-05
1.16613e-05
1.16329e-05
1.16612e-05
1.16329e-05
1.16611e-05
1.16328e-05
1.16611e-05
1.1661e-05
1.16954e-05
1.17232e-05
1.16949e-05
1.17232e-05
1.16941e-05
1.17221e-05
1.16935e-05
1.17217e-05
1.1693e-05
1.1721e-05
1.16925e-05
1.17205e-05
1.1692e-05
1.172e-05
1.16916e-05
1.17196e-05
1.16912e-05
1.17191e-05
1.16908e-05
1.17188e-05
1.16905e-05
1.17184e-05
1.16902e-05
1.17181e-05
1.169e-05
1.17179e-05
1.16898e-05
1.17176e-05
1.16896e-05
1.17174e-05
1.16895e-05
1.17173e-05
1.16894e-05
1.17172e-05
1.16893e-05
1.17171e-05
1.16893e-05
1.17171e-05
1.1717e-05
1.1751e-05
1.17739e-05
1.17504e-05
1.17739e-05
1.17496e-05
1.17728e-05
1.17491e-05
1.17725e-05
1.17485e-05
1.17717e-05
1.1748e-05
1.17713e-05
1.17475e-05
1.17708e-05
1.17471e-05
1.17704e-05
1.17467e-05
1.17699e-05
1.17464e-05
1.17695e-05
1.1746e-05
1.17692e-05
1.17458e-05
1.17689e-05
1.17455e-05
1.17687e-05
1.17453e-05
1.17684e-05
1.17451e-05
1.17683e-05
1.1745e-05
1.17681e-05
1.17449e-05
1.1768e-05
1.17448e-05
1.17679e-05
1.17448e-05
1.17678e-05
1.17678e-05
1.17969e-05
1.18072e-05
1.17964e-05
1.18072e-05
1.17956e-05
1.18067e-05
1.17951e-05
1.18065e-05
1.17945e-05
1.18061e-05
1.17941e-05
1.18059e-05
1.17936e-05
1.18056e-05
1.17932e-05
1.18054e-05
1.17928e-05
1.18052e-05
1.17924e-05
1.1805e-05
1.17921e-05
1.18048e-05
1.17918e-05
1.18047e-05
1.17916e-05
1.18046e-05
1.17914e-05
1.18044e-05
1.17912e-05
1.18044e-05
1.17911e-05
1.18042e-05
1.1791e-05
1.18042e-05
1.17909e-05
1.18042e-05
1.17909e-05
1.18041e-05
1.18041e-05
1.18175e-05
1.18175e-05
1.18175e-05
1.18175e-05
1.18174e-05
1.18174e-05
1.18174e-05
1.18174e-05
1.18174e-05
1.18174e-05
1.18174e-05
1.18174e-05
1.18174e-05
1.18174e-05
1.18174e-05
1.18174e-05
1.18174e-05
1.18174e-05
1.18174e-05
)
;

boundaryField
{
    movingWall
    {
        type            calculated;
        value           nonuniform List<scalar> 
20
(
1.18175e-05
1.18175e-05
1.18175e-05
1.18175e-05
1.18175e-05
1.18174e-05
1.18174e-05
1.18174e-05
1.18174e-05
1.18174e-05
1.18174e-05
1.18174e-05
1.18174e-05
1.18174e-05
1.18174e-05
1.18174e-05
1.18174e-05
1.18174e-05
1.18174e-05
1.18174e-05
)
;
    }
    fixedWalls
    {
        type            calculated;
        value           nonuniform List<scalar> 
60
(
8.6976e-06
9.13932e-06
9.76543e-06
1.03364e-05
1.07524e-05
1.10191e-05
1.11796e-05
1.1276e-05
1.13379e-05
1.1383e-05
1.14212e-05
1.14581e-05
1.14966e-05
1.15389e-05
1.15862e-05
1.16389e-05
1.16954e-05
1.1751e-05
1.17969e-05
1.18175e-05
8.69753e-06
9.13568e-06
9.7612e-06
1.03317e-05
1.07473e-05
1.10136e-05
1.1174e-05
1.12703e-05
1.13321e-05
1.13772e-05
1.14154e-05
1.14522e-05
1.14907e-05
1.1533e-05
1.15802e-05
1.16328e-05
1.16893e-05
1.17448e-05
1.17909e-05
1.18174e-05
8.6976e-06
8.69759e-06
8.69758e-06
8.69757e-06
8.69757e-06
8.69756e-06
8.69755e-06
8.69755e-06
8.69754e-06
8.69754e-06
8.69754e-06
8.69754e-06
8.69753e-06
8.69753e-06
8.69753e-06
8.69753e-06
8.69753e-06
8.69753e-06
8.69753e-06
8.69753e-06
)
;
    }
    frontAndBack
    {
        type            empty;
    }
}


// ************************************************************************* //
