/*--------------------------------*- C++ -*----------------------------------*\
| =========                 |                                                 |
| \\      /  F ield         | OpenFOAM: The Open Source CFD Toolbox           |
|  \\    /   O peration     | Version:  2506                                  |
|   \\  /    A nd           | Website:  www.openfoam.com                      |
|    \\/     M anipulation  |                                                 |
\*---------------------------------------------------------------------------*/
FoamFile
{
    version     2.0;
    format      ascii;
    arch        "LSB;label=32;scalar=64";
    class       surfaceVectorField;
    location    "6";
    object      surfaceU;
}
// * * * * * * * * * * * * * * * * * * * * * * * * * * * * * * * * * * * * * //

dimensions      [0 1 -1 0 0 0 0];

internalField   nonuniform List<vector> 
760
(
(-1 4.47749e-14 0)
(-1 7.15333e-14 0)
(-1 -9.07291e-15 0)
(-1 -1.50866e-14 0)
(-1 2.35043e-15 0)
(-1 3.76347e-15 0)
(-1 -3.6039e-16 0)
(-1 -6.83242e-16 0)
(-1 2.2286e-16 0)
(-1 1.55505e-16 0)
(-1 1.51892e-16 0)
(-1 -7.20841e-18 0)
(-1 1.84584e-16 0)
(-1 1.26191e-16 0)
(-1 1.25041e-16 0)
(-1 1.45445e-16 0)
(-1 5.67464e-17 0)
(-1 1.3424e-16 0)
(-1 2.92109e-17 0)
(-1 5.4413e-17 0)
(-1 2.70405e-17 0)
(-1 4.45486e-17 0)
(-1 -1.94664e-18 0)
(-1 1.22674e-17 0)
(-1 -2.229e-17 0)
(-1 -5.48498e-17 0)
(-1 -1.06552e-17 0)
(-1 -3.83359e-17 0)
(-1 8.4744e-18 0)
(-1 3.34796e-17 0)
(-1 -3.3055e-17 0)
(-1 8.03034e-17 0)
(-1 -8.70958e-17 0)
(-1 -2.00607e-17 0)
(-1 -2.22853e-17 0)
(-1 -5.92866e-17 0)
(-1 1.56595e-17 0)
(-1 1.2714e-17 0)
(-1 -5.4217e-17 0)
(-1 1.16717e-14 0)
(-1 -4.72806e-14 0)
(-1 -2.25027e-15 0)
(-1 1.03848e-14 0)
(-1 7.29794e-16 0)
(-1 -2.34758e-15 0)
(-1 -1.67347e-16 0)
(-1 5.10476e-16 0)
(-1 -7.45635e-17 0)
(-1 -2.09559e-16 0)
(-1 -3.29095e-17 0)
(-1 -5.43676e-17 0)
(-1 8.70524e-17 0)
(-1 -1.71834e-17 0)
(-1 1.54644e-16 0)
(-1 5.66474e-17 0)
(-1 1.31906e-16 0)
(-1 1.2395e-16 0)
(-1 6.97507e-17 0)
(-1 7.02673e-17 0)
(-1 2.97755e-17 0)
(-1 4.07113e-17 0)
(-1 -4.06358e-17 0)
(-1 2.01502e-17 0)
(-1 -7.08957e-17 0)
(-1 -2.53576e-17 0)
(-1 5.79891e-18 0)
(-1 5.534e-18 0)
(-1 1.05309e-16 0)
(-1 9.4713e-17 0)
(-1 9.32977e-17 0)
(-1 1.40964e-16 0)
(-1 7.74851e-18 0)
(-1 5.07951e-17 0)
(-1 -2.42873e-17 0)
(-1 -3.69589e-17 0)
(-1 -5.71625e-17 0)
(-1 -7.48082e-17 0)
(-1 -1.06679e-16 0)
(-1 -4.85676e-14 0)
(-1 -2.21179e-14 0)
(-1 1.02875e-14 0)
(-1 4.90941e-15 0)
(-1 -2.5669e-15 0)
(-1 -1.24739e-15 0)
(-1 4.68264e-16 0)
(-1 2.4843e-16 0)
(-1 -1.89363e-16 0)
(-1 1.11778e-18 0)
(-1 -3.86415e-17 0)
(-1 7.7282e-17 0)
(-1 -4.75883e-17 0)
(-1 -1.24628e-17 0)
(-1 2.59528e-17 0)
(-1 -2.22718e-17 0)
(-1 6.23107e-17 0)
(-1 3.35493e-17 0)
(-1 4.12279e-17 0)
(-1 5.43298e-17 0)
(-1 3.10861e-17 0)
(-1 1.42759e-17 0)
(-1 3.54284e-17 0)
(-1 2.93721e-17 0)
(-1 5.10721e-17 0)
(-1 7.25965e-17 0)
(-1 9.44481e-17 0)
(-1 7.33698e-17 0)
(-1 1.30368e-16 0)
(-1 4.82526e-17 0)
(-1 9.84612e-17 0)
(-1 1.45228e-17 0)
(-1 6.08773e-18 0)
(-1 -1.69857e-18 0)
(-1 -8.74799e-17 0)
(-1 -9.01093e-17 0)
(-1 -1.24325e-16 0)
(-1 -1.35978e-16 0)
(-1 -1.01587e-16 0)
(-1 3.1359e-14 0)
(-1 3.96731e-14 0)
(-1 -6.62546e-15 0)
(-1 -8.78121e-15 0)
(-1 1.56794e-15 0)
(-1 2.04337e-15 0)
(-1 -2.18716e-16 0)
(-1 -4.40296e-16 0)
(-1 2.67763e-16 0)
(-1 2.02658e-16 0)
(-1 1.03461e-16 0)
(-1 9.86313e-17 0)
(-1 1.28537e-17 0)
(-1 1.22211e-17 0)
(-1 -1.46753e-17 0)
(-1 -3.11039e-17 0)
(-1 2.55684e-17 0)
(-1 -1.8291e-17 0)
(-1 2.73778e-17 0)
(-1 6.17819e-17 0)
(-1 1.25619e-17 0)
(-1 1.56604e-17 0)
(-1 6.65401e-17 0)
(-1 6.22288e-17 0)
(-1 9.48942e-17 0)
(-1 1.02634e-16 0)
(-1 2.71743e-17 0)
(-1 3.41176e-17 0)
(-1 -6.75927e-17 0)
(-1 -6.86759e-17 0)
(-1 -8.5637e-17 0)
(-1 -1.41207e-16 0)
(-1 -9.78956e-17 0)
(-1 -7.80086e-17 0)
(-1 -1.38607e-16 0)
(-1 -1.00291e-16 0)
(-1 -1.1324e-16 0)
(-1 -1.13041e-16 0)
(-1 -4.6443e-17 0)
(-1 -4.67104e-16 0)
(-1 -3.44021e-14 0)
(-1 -1.12382e-16 0)
(-1 7.08333e-15 0)
(-1 3.51351e-17 0)
(-1 -1.64695e-15 0)
(-1 -1.8921e-17 0)
(-1 2.85246e-16 0)
(-1 3.35271e-17 0)
(-1 -1.03877e-16 0)
(-1 7.39168e-18 0)
(-1 1.6993e-17 0)
(-1 -3.17365e-17 0)
(-1 -2.36288e-17 0)
(-1 -3.47196e-17 0)
(-1 -2.09738e-17 0)
(-1 1.79225e-17 0)
(-1 -6.15081e-17 0)
(-1 5.00645e-17 0)
(-1 -5.36173e-18 0)
(-1 6.53273e-17 0)
(-1 5.65669e-17 0)
(-1 9.83225e-17 0)
(-1 1.83418e-16 0)
(-1 4.18572e-17 0)
(-1 1.77496e-16 0)
(-1 -6.17326e-17 0)
(-1 1.06199e-17 0)
(-1 -1.42291e-16 0)
(-1 -9.02471e-17 0)
(-1 -1.33579e-16 0)
(-1 -1.41075e-16 0)
(-1 -8.04043e-17 0)
(-1 -1.16031e-16 0)
(-1 -7.47255e-17 0)
(-1 -6.71534e-17 0)
(-1 -4.62446e-17 0)
(-1 -2.56626e-17 0)
(-1 5.70397e-18 0)
(-1 -2.68516e-14 0)
(-1 8.51944e-15 0)
(-1 5.54876e-15 0)
(-1 -1.33596e-15 0)
(-1 -1.39684e-15 0)
(-1 3.81538e-16 0)
(-1 2.0029e-16 0)
(-1 -7.61403e-17 0)
(-1 -1.20412e-16 0)
(-1 5.49839e-18 0)
(-1 -1.40276e-17 0)
(-1 -6.72422e-18 0)
(-1 -1.28661e-17 0)
(-1 1.84854e-18 0)
(-1 -4.77622e-17 0)
(-1 6.08994e-17 0)
(-1 -8.47923e-17 0)
(-1 6.30142e-17 0)
(-1 1.14062e-18 0)
(-1 5.0992e-17 0)
(-1 1.74657e-16 0)
(-1 1.42995e-16 0)
(-1 2.62591e-16 0)
(-1 1.58487e-16 0)
(-1 1.46259e-16 0)
(-1 8.52392e-17 0)
(-1 -1.78946e-17 0)
(-1 -5.90338e-17 0)
(-1 -8.90318e-17 0)
(-1 -8.2556e-17 0)
(-1 -1.23528e-16 0)
(-1 -3.02583e-17 0)
(-1 -1.0278e-16 0)
(-1 -1.73306e-17 0)
(-1 -1.80905e-17 0)
(-1 2.09595e-17 0)
(-1 2.62859e-17 0)
(-1 3.46924e-17 0)
(-1 9.04829e-18 0)
(-1 3.40351e-14 0)
(-1 2.94501e-14 0)
(-1 -6.50319e-15 0)
(-1 -5.84935e-15 0)
(-1 1.70223e-15 0)
(-1 1.5534e-15 0)
(-1 -2.70932e-16 0)
(-1 -2.03259e-16 0)
(-1 1.19186e-16 0)
(-1 1.6547e-16 0)
(-1 9.15188e-18 0)
(-1 3.64718e-17 0)
(-1 7.5614e-17 0)
(-1 4.61712e-17 0)
(-1 1.71676e-16 0)
(-1 1.19305e-16 0)
(-1 1.98799e-16 0)
(-1 1.90711e-16 0)
(-1 1.92847e-16 0)
(-1 1.50102e-16 0)
(-1 1.26825e-16 0)
(-1 8.56993e-17 0)
(-1 -1.88648e-17 0)
(-1 -1.03642e-16 0)
(-1 -1.20053e-16 0)
(-1 -1.52861e-16 0)
(-1 -1.23695e-16 0)
(-1 -8.06708e-17 0)
(-1 -2.37825e-17 0)
(-1 -3.40609e-17 0)
(-1 7.59388e-17 0)
(-1 5.06417e-17 0)
(-1 1.06409e-16 0)
(-1 7.57841e-17 0)
(-1 7.37423e-17 0)
(-1 6.6823e-17 0)
(-1 1.74547e-17 0)
(-1 4.40593e-17 0)
(-1 1.31078e-18 0)
(-1 -1.04343e-14 0)
(-1 -3.54467e-14 0)
(-1 2.20723e-15 0)
(-1 7.32344e-15 0)
(-1 -3.52097e-16 0)
(-1 -1.58465e-15 0)
(-1 2.33143e-16 0)
(-1 4.73838e-16 0)
(-1 8.27564e-17 0)
(-1 2.96584e-17 0)
(-1 7.3491e-17 0)
(-1 6.69524e-17 0)
(-1 8.98626e-17 0)
(-1 7.16212e-17 0)
(-1 1.3834e-16 0)
(-1 6.83569e-17 0)
(-1 1.42015e-16 0)
(-1 5.42221e-17 0)
(-1 4.29549e-17 0)
(-1 2.71739e-17 0)
(-1 -1.44767e-16 0)
(-1 -9.35755e-17 0)
(-1 -2.37638e-16 0)
(-1 -1.7985e-16 0)
(-1 -1.13479e-16 0)
(-1 -9.8306e-17 0)
(-1 8.96342e-18 0)
(-1 6.10872e-17 0)
(-1 4.03633e-17 0)
(-1 6.17671e-17 0)
(-1 5.04871e-17 0)
(-1 5.41102e-17 0)
(-1 3.61977e-17 0)
(-1 2.13916e-17 0)
(-1 3.71399e-17 0)
(-1 1.52762e-17 0)
(-1 2.79153e-17 0)
(-1 6.21756e-17 0)
(-1 1.34276e-17 0)
(-1 -1.7689e-14 0)
(-1 1.31352e-14 0)
(-1 3.53155e-15 0)
(-1 -2.70028e-15 0)
(-1 -7.5872e-16 0)
(-1 6.21621e-16 0)
(-1 2.70354e-16 0)
(-1 -6.20133e-18 0)
(-1 1.38544e-17 0)
(-1 1.22698e-16 0)
(-1 6.50826e-17 0)
(-1 1.27241e-16 0)
(-1 5.01154e-17 0)
(-1 1.34329e-16 0)
(-1 -1.57614e-17 0)
(-1 2.0216e-17 0)
(-1 -6.06185e-17 0)
(-1 -6.0452e-17 0)
(-1 -1.09356e-16 0)
(-1 -2.03271e-17 0)
(-1 -1.28658e-16 0)
(-1 -8.08263e-17 0)
(-1 -4.0518e-17 0)
(-1 -1.03179e-16 0)
(-1 7.626e-17 0)
(-1 -5.70591e-17 0)
(-1 1.13891e-16 0)
(-1 -2.13295e-18 0)
(-1 7.55141e-17 0)
(-1 4.98842e-17 0)
(-1 2.50148e-17 0)
(-1 8.08615e-17 0)
(-1 4.70138e-19 0)
(-1 5.5698e-17 0)
(-1 4.03119e-17 0)
(-1 1.48784e-17 0)
(-1 4.76878e-17 0)
(-1 1.7219e-17 0)
(-1 3.59383e-18 0)
(-1 2.81239e-14 0)
(-1 2.71369e-15 0)
(-1 -5.61021e-15 0)
(-1 -4.01395e-16 0)
(-1 1.37414e-15 0)
(-1 1.30729e-16 0)
(-1 -1.53857e-16 0)
(-1 9.89581e-17 0)
(-1 2.36085e-16 0)
(-1 1.26242e-16 0)
(-1 1.96488e-16 0)
(-1 1.38577e-16 0)
(-1 1.04429e-16 0)
(-1 1.16072e-16 0)
(-1 -2.44746e-17 0)
(-1 2.04319e-17 0)
(-1 -2.01606e-17 0)
(-1 -4.03319e-18 0)
(-1 8.20311e-18 0)
(-1 6.14479e-17 0)
(-1 -5.53477e-17 0)
(-1 5.04514e-17 0)
(-1 -1.19721e-16 0)
(-1 -8.25182e-17 0)
(-1 -1.35452e-16 0)
(-1 -1.06266e-16 0)
(-1 -6.61398e-17 0)
(-1 -3.66489e-17 0)
(-1 5.52316e-17 0)
(-1 8.6376e-17 0)
(-1 1.11545e-16 0)
(-1 8.69352e-17 0)
(-1 7.01062e-17 0)
(-1 4.53926e-17 0)
(-1 -8.21456e-18 0)
(-1 -1.13654e-17 0)
(-1 -2.6875e-17 0)
(-1 -3.23381e-17 0)
(-1 -6.73283e-18 0)
(-1 -2.58116e-14 0)
(-1 -1.51556e-14 0)
(-1 5.33955e-15 0)
(-1 3.24682e-15 0)
(-1 -1.14445e-15 0)
(-1 -5.86528e-16 0)
(-1 3.79057e-16 0)
(-1 2.44772e-16 0)
(-1 2.87337e-17 0)
(-1 2.44071e-17 0)
(-1 5.81609e-17 0)
(-1 7.90274e-18 0)
(-1 3.20741e-17 0)
(-1 3.69917e-17 0)
(-1 4.08733e-17 0)
(-1 3.17199e-17 0)
(-1 7.75753e-17 0)
(-1 4.3521e-17 0)
(-1 1.03696e-16 0)
(-1 4.18588e-17 0)
(-1 2.32809e-17 0)
(-1 3.30914e-17 0)
(-1 -6.90633e-17 0)
(-1 -3.9853e-17 0)
(-1 -7.4625e-18 0)
(-1 -4.59425e-17 0)
(-1 1.15867e-16 0)
(-1 7.50283e-17 0)
(-1 1.1808e-16 0)
(-1 1.53963e-16 0)
(-1 2.07831e-17 0)
(-1 4.8438e-17 0)
(-1 -3.6079e-17 0)
(-1 -1.61572e-17 0)
(-1 -3.54889e-17 0)
(-1 1.66225e-17 0)
(-1 -1.21959e-17 0)
(-1 3.2913e-17 0)
(-1 3.09413e-17 0)
(-1 1.39028e-14 0)
(-1 2.46617e-14 0)
(-1 -2.67925e-15 0)
(-1 -4.95964e-15 0)
(-1 8.02697e-16 0)
(-1 1.3413e-15 0)
(-1 -1.09878e-16 0)
(-1 -2.49301e-16 0)
(-1 3.57615e-18 0)
(-1 2.40313e-17 0)
(-1 -1.32665e-17 0)
(-1 1.65585e-17 0)
(-1 3.66376e-17 0)
(-1 9.42242e-17 0)
(-1 3.43675e-17 0)
(-1 7.90509e-17 0)
(-1 7.8045e-18 0)
(-1 -8.88797e-18 0)
(-1 -2.87459e-17 0)
(-1 -1.38217e-16 0)
(-1 -3.00425e-17 0)
(-1 -1.63596e-16 0)
(-1 -1.67322e-17 0)
(-1 -6.65516e-17 0)
(-1 3.65483e-17 0)
(-1 -1.18886e-18 0)
(-1 1.13125e-16 0)
(-1 3.39136e-17 0)
(-1 8.43219e-17 0)
(-1 4.2435e-18 0)
(-1 1.14978e-17 0)
(-1 -1.9702e-17 0)
(-1 3.65443e-17 0)
(-1 -2.44819e-17 0)
(-1 8.50244e-17 0)
(-1 1.22704e-17 0)
(-1 7.60503e-17 0)
(-1 -1.35841e-17 0)
(-1 6.08681e-18 0)
(-1 5.79923e-15 0)
(-1 -2.28822e-14 0)
(-1 -9.39082e-16 0)
(-1 5.02589e-15 0)
(-1 2.89307e-16 0)
(-1 -1.05138e-15 0)
(-1 -1.15392e-16 0)
(-1 2.07669e-16 0)
(-1 3.70136e-17 0)
(-1 -8.52849e-17 0)
(-1 1.24049e-16 0)
(-1 3.79637e-17 0)
(-1 1.36638e-16 0)
(-1 -5.86494e-18 0)
(-1 3.57954e-17 0)
(-1 1.2874e-17 0)
(-1 -1.54909e-16 0)
(-1 -5.35877e-17 0)
(-1 -2.73067e-16 0)
(-1 -1.84255e-16 0)
(-1 -2.00105e-16 0)
(-1 -1.42302e-16 0)
(-1 -5.10082e-17 0)
(-1 -4.50628e-17 0)
(-1 -3.82355e-18 0)
(-1 -1.26191e-17 0)
(-1 -7.49678e-17 0)
(-1 -4.5619e-17 0)
(-1 -9.97804e-17 0)
(-1 -9.20694e-17 0)
(-1 -5.56817e-17 0)
(-1 -1.55903e-17 0)
(-1 -4.87558e-17 0)
(-1 -1.57729e-17 0)
(-1 -8.63381e-17 0)
(-1 -7.90297e-17 0)
(-1 -8.35475e-17 0)
(-1 -1.60771e-16 0)
(-1 -9.86512e-17 0)
(-1 -2.36555e-14 0)
(-1 8.70014e-15 0)
(-1 4.91359e-15 0)
(-1 -1.94796e-15 0)
(-1 -1.13302e-15 0)
(-1 4.87327e-16 0)
(-1 2.37776e-16 0)
(-1 -6.89496e-17 0)
(-1 -8.43347e-17 0)
(-1 5.7057e-17 0)
(-1 -9.19503e-17 0)
(-1 2.84519e-17 0)
(-1 -1.29628e-16 0)
(-1 -9.25235e-17 0)
(-1 -7.6509e-17 0)
(-1 -1.50604e-16 0)
(-1 -8.29332e-17 0)
(-1 -1.11777e-16 0)
(-1 -5.34908e-17 0)
(-1 -8.35277e-17 0)
(-1 1.27394e-17 0)
(-1 -1.06078e-18 0)
(-1 -6.67367e-18 0)
(-1 -5.79548e-18 0)
(-1 -5.44146e-17 0)
(-1 -5.5504e-17 0)
(-1 -6.27206e-17 0)
(-1 -7.87829e-17 0)
(-1 -7.87929e-18 0)
(-1 -3.26062e-17 0)
(-1 2.43185e-17 0)
(-1 2.52426e-18 0)
(-1 -4.60468e-17 0)
(-1 5.05635e-18 0)
(-1 -1.53463e-16 0)
(-1 -5.97393e-17 0)
(-1 -1.75875e-16 0)
(-1 -1.16595e-16 0)
(-1 -1.02947e-16 0)
(-1 3.04077e-14 0)
(-1 1.19151e-14 0)
(-1 -6.37422e-15 0)
(-1 -2.5729e-15 0)
(-1 1.5514e-15 0)
(-1 6.27038e-16 0)
(-1 -2.49669e-16 0)
(-1 -1.19152e-16 0)
(-1 1.69844e-16 0)
(-1 7.36324e-18 0)
(-1 2.78788e-17 0)
(-1 -1.34437e-17 0)
(-1 -1.13499e-16 0)
(-1 -6.58248e-17 0)
(-1 -1.85871e-16 0)
(-1 -1.81375e-16 0)
(-1 -1.12371e-16 0)
(-1 -1.42325e-16 0)
(-1 -3.10976e-17 0)
(-1 -6.82832e-17 0)
(-1 -1.95956e-17 0)
(-1 -8.47485e-17 0)
(-1 -5.46258e-17 0)
(-1 -4.27577e-17 0)
(-1 -7.98723e-17 0)
(-1 1.51657e-17 0)
(-1 -4.86685e-17 0)
(-1 -1.32788e-17 0)
(-1 -2.22026e-17 0)
(-1 -7.57593e-18 0)
(-1 -1.67379e-17 0)
(-1 -3.00201e-17 0)
(-1 -8.63607e-18 0)
(-1 -1.62948e-17 0)
(-1 -2.28715e-17 0)
(-1 -1.15618e-17 0)
(-1 -4.36671e-17 0)
(-1 3.90106e-18 0)
(-1 -3.97323e-17 0)
(-1 -2.10655e-14 0)
(-1 -3.27642e-14 0)
(-1 4.42835e-15 0)
(-1 7.25043e-15 0)
(-1 -1.04351e-15 0)
(-1 -1.63071e-15 0)
(-1 1.3788e-16 0)
(-1 3.21469e-16 0)
(-1 -1.75924e-16 0)
(-1 -2.55576e-16 0)
(-1 -1.07147e-16 0)
(-1 -2.18327e-16 0)
(-1 -1.33701e-16 0)
(-1 -1.97016e-16 0)
(-1 -1.37829e-16 0)
(-1 -1.23982e-16 0)
(-1 -9.82373e-17 0)
(-1 -6.92148e-17 0)
(-1 -1.21934e-16 0)
(-1 -6.41897e-17 0)
(-1 -1.07911e-16 0)
(-1 -1.39771e-16 0)
(-1 2.70338e-17 0)
(-1 -9.30049e-18 0)
(-1 8.17591e-17 0)
(-1 1.05342e-16 0)
(-1 2.78137e-17 0)
(-1 4.99523e-17 0)
(-1 -1.53934e-17 0)
(-1 1.81475e-17 0)
(-1 -2.9577e-17 0)
(-1 1.552e-17 0)
(-1 -1.92205e-17 0)
(-1 -1.47238e-17 0)
(-1 1.52108e-17 0)
(-1 1.12063e-17 0)
(-1 7.83586e-18 0)
(-1 2.66406e-17 0)
(-1 -2.56941e-17 0)
(-1 -4.4482e-15 0)
(-1 3.52163e-14 0)
(-1 1.19136e-15 0)
(-1 -7.1814e-15 0)
(-1 -2.65726e-16 0)
(-1 1.68706e-15 0)
(-1 -7.19867e-17 0)
(-1 -3.87433e-16 0)
(-1 -2.97979e-16 0)
(-1 -3.97817e-17 0)
(-1 -3.08195e-16 0)
(-1 -2.40448e-16 0)
(-1 -1.87297e-16 0)
(-1 -2.18567e-16 0)
(-1 -5.5368e-17 0)
(-1 -9.26335e-17 0)
(-1 -3.51672e-17 0)
(-1 -2.72069e-17 0)
(-1 -8.2027e-17 0)
(-1 -4.96004e-17 0)
(-1 -4.11613e-17 0)
(-1 -4.27443e-17 0)
(-1 6.90075e-17 0)
(-1 5.2522e-17 0)
(-1 7.35349e-17 0)
(-1 8.34774e-17 0)
(-1 4.02861e-17 0)
(-1 6.81618e-17 0)
(-1 4.90608e-17 0)
(-1 5.84737e-17 0)
(-1 3.03732e-17 0)
(-1 1.4792e-17 0)
(-1 1.5703e-17 0)
(-1 -4.75375e-17 0)
(-1 2.26361e-17 0)
(-1 6.13117e-18 0)
(-1 -6.88938e-18 0)
(-1 1.53569e-17 0)
(-1 -5.89985e-18 0)
(-1 3.24831e-14 0)
(-1 2.34966e-14 0)
(-1 -6.68571e-15 0)
(-1 -5.37524e-15 0)
(-1 1.56535e-15 0)
(-1 1.17812e-15 0)
(-1 -3.55228e-16 0)
(-1 -3.41305e-16 0)
(-1 1.77495e-17 0)
(-1 3.36168e-17 0)
(-1 -1.5082e-16 0)
(-1 -1.54299e-16 0)
(-1 -1.23904e-16 0)
(-1 -2.04417e-16 0)
(-1 -6.44724e-17 0)
(-1 -1.75026e-16 0)
(-1 -4.16401e-17 0)
(-1 -9.31017e-17 0)
(-1 -1.03176e-17 0)
(-1 -5.74906e-17 0)
(-1 5.09391e-17 0)
(-1 6.51506e-17 0)
(-1 6.69919e-17 0)
(-1 6.50552e-17 0)
(-1 7.81042e-17 0)
(-1 -6.54309e-18 0)
(-1 8.63494e-17 0)
(-1 2.78581e-17 0)
(-1 2.42048e-17 0)
(-1 2.64269e-17 0)
(-1 -6.31187e-17 0)
(-1 -4.78477e-17 0)
(-1 -5.71093e-17 0)
(-1 -7.99686e-17 0)
(-1 -1.14804e-18 0)
(-1 -2.71028e-17 0)
(-1 1.63464e-17 0)
(-1 -1.04891e-17 0)
(-1 1.85056e-17 0)
(-1 -1.43618e-14 0)
(-1 -5.8503e-14 0)
(-1 2.48858e-15 0)
(-1 1.20303e-14 0)
(-1 -7.28541e-16 0)
(-1 -2.89917e-15 0)
(-1 4.75398e-17 0)
(-1 5.16142e-16 0)
(-1 -1.38432e-16 0)
(-1 -1.88419e-16 0)
(-1 -2.07896e-16 0)
(-1 -9.97315e-17 0)
(-1 -2.55539e-16 0)
(-1 -1.77875e-16 0)
(-1 -2.03656e-16 0)
(-1 -1.60578e-16 0)
(-1 -1.08952e-16 0)
(-1 -9.78752e-17 0)
(-1 1.79776e-17 0)
(-1 -4.90521e-17 0)
(-1 7.92667e-17 0)
(-1 6.93487e-17 0)
(-1 -8.47981e-18 0)
(-1 2.80162e-17 0)
(-1 -5.67892e-17 0)
(-1 -8.13575e-17 0)
(-1 -3.20643e-17 0)
(-1 -8.62968e-17 0)
(-1 -4.56256e-17 0)
(-1 -5.48471e-17 0)
(-1 -6.46975e-17 0)
(-1 -7.15724e-17 0)
(-1 -4.99621e-17 0)
(-1 -3.52606e-17 0)
(-1 -3.64439e-17 0)
(-1 -2.48879e-17 0)
(-1 -8.3299e-18 0)
(-1 -3.38914e-17 0)
(-1 3.32371e-19 0)
(-1 -3.21109e-14 0)
(-1 6.64257e-15 0)
(-1 -1.65448e-15 0)
(-1 2.80183e-16 0)
(-1 -1.49719e-16 0)
(-1 -6.97109e-17 0)
(-1 -8.29148e-17 0)
(-1 -5.47979e-17 0)
(-1 -3.79751e-17 0)
(-1 2.31902e-18 0)
(-1 1.80982e-17 0)
(-1 -4.48615e-17 0)
(-1 -1.10865e-16 0)
(-1 -1.0908e-16 0)
(-1 -8.07939e-17 0)
(-1 -4.21355e-17 0)
(-1 -1.01864e-17 0)
(-1 -2.23354e-17 0)
(-1 -2.52291e-17 0)
)
;

boundaryField
{
    movingWall
    {
        type            calculated;
        value           uniform (-1 -0 -0);
    }
    fixedWalls
    {
        type            calculated;
        value           uniform (-1 -0 -0);
    }
    frontAndBack
    {
        type            empty;
    }
}


// ************************************************************************* //
