/*--------------------------------*- C++ -*----------------------------------*\
| =========                 |                                                 |
| \\      /  F ield         | OpenFOAM: The Open Source CFD Toolbox           |
|  \\    /   O peration     | Version:  2506                                  |
|   \\  /    A nd           | Website:  www.openfoam.com                      |
|    \\/     M anipulation  |                                                 |
\*---------------------------------------------------------------------------*/
FoamFile
{
    version     2.0;
    format      ascii;
    arch        "LSB;label=32;scalar=64";
    class       surfaceScalarField;
    location    "6";
    object      surfaceP;
}
// * * * * * * * * * * * * * * * * * * * * * * * * * * * * * * * * * * * * * //

dimensions      [0 2 -2 0 0 0 0];

internalField   nonuniform List<scalar> 
760
(
1.08695e-15
7.93493e-16
1.38416e-15
1.08067e-15
5.44221e-16
6.55591e-16
2.40731e-16
3.08e-16
1.07967e-17
0
1.07967e-17
2.41373e-17
0
0
0
0
0
0
0
0
7.62847e-17
0
7.62847e-17
7.62847e-17
0
0
0
0
0
0
0
0
0
0
0
0
0
0
0
7.87215e-16
1.18616e-15
3.521e-16
6.94938e-16
4.1937e-16
6.09987e-16
6.72693e-17
2.3681e-16
1.33406e-17
5.30032e-17
1.33406e-17
1.23922e-16
0
0
0
0
0
0
0
0
0
0
0
0
0
0
0
0
0
0
0
0
0
0
0
0
0
0
0
1.09389e-15
5.98231e-16
9.52825e-16
1.52583e-15
4.27428e-16
5.43578e-16
2.22544e-16
4.23181e-16
1.63585e-16
1.59839e-16
1.10582e-16
1.95104e-16
0
9.01957e-18
0
0
0
0
0
0
0
0
0
0
0
0
0
0
0
0
0
0
0
0
0
0
0
0
0
1.03018e-15
6.83383e-16
1.11659e-15
8.30896e-16
5.39332e-16
5.7702e-16
3.60476e-16
3.83723e-16
1.91358e-16
2.62878e-16
9.35417e-17
1.7779e-16
9.01957e-18
4.58922e-17
0
1.80997e-17
0
0
0
0
0
1.20288e-17
0
4.66504e-18
0
0
0
0
0
0
0
0
0
0
0
0
0
0
0
4.841e-16
4.841e-16
2.91328e-16
1.21768e-15
4.2141e-16
5.98554e-16
2.86124e-16
4.8593e-16
2.49309e-16
3.85481e-16
1.3014e-16
2.09215e-16
5.49723e-17
7.78823e-17
1.80997e-17
1.80997e-17
0
0
1.20288e-17
0
1.66938e-17
3.84094e-17
4.66504e-18
4.66504e-18
0
0
0
0
0
0
0
0
0
0
0
0
0
0
0
1.21768e-15
2.23004e-16
1.5249e-15
1.93268e-15
6.63073e-16
6.30871e-16
5.85287e-16
6.75279e-16
3.45387e-16
4.34652e-16
1.56958e-16
2.40924e-16
4.10097e-17
8.39648e-17
0
0
0
0
2.63806e-17
3.06653e-17
2.63806e-17
1.14963e-16
0
0
0
0
0
0
0
0
0
0
0
0
0
0
0
0
0
9.38002e-16
8.55401e-16
1.03864e-15
7.14999e-16
6.43077e-16
5.57876e-16
5.24645e-16
5.20588e-16
3.3019e-16
3.89556e-16
1.67932e-16
2.89879e-16
4.29551e-17
1.84869e-16
0
0
3.06653e-17
0
1.19248e-16
3.06653e-17
8.85828e-17
8.85828e-17
0
0
0
0
0
1.91578e-17
0
0
0
0
0
0
0
0
0
0
0
6.32398e-16
8.06617e-16
2.34231e-16
1.33902e-15
4.35387e-16
4.86977e-16
3.85499e-16
4.77208e-16
3.49245e-16
2.60311e-16
3.06816e-16
2.56814e-16
1.41914e-16
1.83065e-16
0
0
0
0
0
0
0
0
0
0
1.91578e-17
0
1.91578e-17
1.91578e-17
0
0
0
0
0
0
0
0
0
0
0
1.51324e-15
4.53674e-16
1.59177e-15
1.45458e-15
5.28798e-16
5.72442e-16
3.5202e-16
4.46737e-16
1.67879e-16
1.45521e-16
1.33063e-16
9.19114e-17
4.11513e-17
4.11513e-17
0
0
0
0
0
0
0
0
0
0
0
0
0
0
0
7.99342e-18
0
0
0
0
0
0
0
0
0
3.95012e-16
5.81772e-16
4.35254e-16
1.15558e-16
4.90381e-16
5.79756e-16
2.40238e-16
2.43895e-16
6.95533e-17
6.95533e-17
0
0
0
0
0
0
0
1.39537e-17
0
0
0
0
0
0
0
1.98767e-17
7.99342e-18
2.88459e-17
7.99342e-18
1.44296e-17
0
0
0
0
0
0
0
0
0
3.02318e-16
4.94361e-16
2.6006e-16
1.32491e-15
3.33269e-16
3.45877e-16
7.32097e-17
2.23577e-16
0
0
0
0
0
0
1.39537e-17
0
1.39537e-17
1.39537e-17
0
0
0
0
1.98767e-17
0
4.87226e-17
1.14083e-16
3.52821e-17
1.83012e-16
6.43623e-18
6.43623e-18
0
0
0
0
0
0
0
0
0
1.51695e-15
7.24205e-16
1.41072e-15
1.32491e-15
2.36185e-16
2.0522e-16
1.50368e-16
1.50368e-16
0
0
0
0
0
0
0
0
0
9.39914e-17
0
0
0
0
9.42066e-17
1.02007e-16
2.48373e-16
2.15877e-16
1.54167e-16
3.0965e-16
0
0
0
0
0
0
0
0
0
0
0
5.32162e-16
7.61989e-16
1.19403e-16
8.88826e-16
1.19403e-16
2.08914e-16
0
8.89768e-17
0
0
0
0
0
0
9.39914e-17
0
9.39914e-17
1.34291e-16
0
6.19314e-17
1.02007e-16
3.93582e-17
2.23678e-16
2.02626e-16
2.77155e-16
2.34682e-16
1.55484e-16
2.09391e-16
0
0
0
0
0
0
0
0
0
0
3.96198e-17
1.11865e-15
3.47203e-16
9.78337e-16
8.88826e-16
1.78488e-16
1.54726e-16
8.89768e-17
8.89768e-17
0
0
0
0
0
2.32185e-17
4.02995e-17
6.51718e-17
1.02231e-16
1.73082e-16
1.0129e-16
2.3232e-16
1.39977e-16
4.97037e-17
2.1363e-16
1.06952e-16
1.66918e-16
2.14546e-16
5.39067e-17
1.36761e-16
0
0
0
0
0
0
0
0
3.96198e-17
5.17567e-17
1.61768e-16
1.17376e-16
2.40682e-16
6.52146e-17
0
6.52146e-17
9.88482e-17
0
0
0
0
2.32185e-17
0
8.83903e-17
4.35004e-17
1.97955e-16
2.0364e-16
3.03171e-16
3.05857e-16
1.80734e-16
3.41948e-16
1.66786e-17
1.1436e-16
1.07867e-16
7.8192e-17
1.84388e-16
1.47529e-16
8.28543e-17
1.27543e-16
0
0
0
0
0
0
5.17567e-17
0
1.73905e-16
5.63558e-17
2.60964e-16
1.23306e-16
1.23306e-16
3.36336e-17
8.84375e-16
3.36336e-17
3.36336e-17
0
1.63009e-18
0
5.35653e-17
2.02819e-17
7.62025e-17
1.5875e-16
1.72087e-16
3.11542e-16
3.71059e-16
3.44633e-16
3.62491e-16
2.75574e-16
3.30264e-16
1.75874e-16
3.49328e-16
1.17854e-16
2.3807e-16
9.06835e-17
4.91141e-17
4.46886e-17
4.46886e-17
0
0
0
0
0
0
4.59909e-18
9.75726e-18
1.43415e-16
4.59909e-18
2.92291e-16
8.84375e-16
2.72461e-16
8.84375e-16
8.84375e-16
1.63009e-18
0
5.51954e-17
1.63009e-18
1.29768e-16
1.77411e-16
2.28007e-16
2.15954e-16
3.84396e-16
3.70756e-16
4.22008e-16
4.53043e-16
3.48122e-16
3.62062e-16
4.04018e-16
2.86173e-16
4.11525e-16
4.72555e-16
1.6933e-16
3.1616e-16
3.11913e-18
3.11913e-18
0
0
0
0
0
0
9.75726e-18
9.99673e-18
9.75726e-18
2.69092e-17
1.53475e-16
0
3.41499e-16
2.72461e-16
5.18984e-16
0
0
0
0
1.23846e-16
1.78149e-17
2.63597e-16
2.23026e-16
3.58702e-16
2.68021e-16
4.39403e-16
4.20313e-16
3.93097e-16
4.26384e-16
3.00113e-16
3.43249e-16
3.5471e-16
3.0661e-16
3.7719e-16
3.98358e-16
1.49948e-16
2.95783e-16
0
3.31796e-17
0
0
0
0
9.99673e-18
0
2.71487e-17
6.09845e-17
1.7152e-17
5.62971e-17
1.88024e-16
6.29523e-17
3.3311e-16
2.46524e-16
2.46524e-16
0
7.13622e-16
1.78149e-17
2.28559e-17
1.16995e-16
1.91287e-16
2.27449e-16
1.70145e-16
3.29631e-16
2.04781e-16
4.07294e-16
3.67926e-16
3.76537e-16
4.27736e-16
3.49746e-16
3.27245e-16
3.50258e-16
3.92929e-16
3.16951e-16
3.40433e-16
1.79014e-16
2.68877e-16
3.31796e-17
8.7147e-17
0
5.68903e-18
0
0
5.09878e-17
0
9.01329e-17
1.04321e-16
1.02097e-16
5.36267e-17
2.08038e-16
1.50191e-16
3.29416e-16
7.13622e-16
7.36478e-16
1.96328e-16
2.44437e-16
1.47477e-16
2.43076e-16
3.88368e-16
3.78444e-16
3.70428e-16
3.83104e-16
2.92358e-16
1.7701e-16
5.96565e-17
5.68903e-18
0
5.33328e-17
6.78143e-17
1.0172e-16
2.71568e-16
)
;

boundaryField
{
    movingWall
    {
        type            calculated;
        value           nonuniform List<scalar> 
20
(
0
1.42724e-15
4.57118e-17
3.46945e-16
1.4193e-16
1.53025e-16
3.33128e-16
4.43607e-16
3.1328e-16
4.27576e-16
3.38632e-16
2.46085e-16
1.07935e-16
1.13781e-17
0
0
1.06666e-16
2.89631e-17
1.74477e-16
3.6866e-16
)
;
    }
    fixedWalls
    {
        type            calculated;
        value           nonuniform List<scalar> 
60
(
1.25558e-17
1.57443e-15
7.97897e-16
3.98566e-16
9.68201e-16
0
4.46008e-16
1.2648e-15
3.48439e-16
5.58908e-16
6.04636e-16
3.84087e-16
1.06432e-15
4.59653e-16
2.34752e-16
2.46613e-16
0
5.44921e-16
4.93048e-16
0
0
0
0
0
0
0
0
0
0
0
0
0
0
7.92397e-17
2.44296e-16
2.77632e-16
3.06949e-16
3.76048e-16
2.90172e-16
3.6866e-16
1.25558e-17
2.16134e-15
6.0698e-16
4.81462e-16
0
2.15934e-17
0
0
0
0
0
1.52569e-16
0
0
0
0
0
0
0
0
)
;
    }
    frontAndBack
    {
        type            empty;
    }
}


// ************************************************************************* //
