/*--------------------------------*- C++ -*----------------------------------*\
| =========                 |                                                 |
| \\      /  F ield         | OpenFOAM: The Open Source CFD Toolbox           |
|  \\    /   O peration     | Version:  2506                                  |
|   \\  /    A nd           | Website:  www.openfoam.com                      |
|    \\/     M anipulation  |                                                 |
\*---------------------------------------------------------------------------*/
FoamFile
{
    version     2.0;
    format      ascii;
    arch        "LSB;label=32;scalar=64";
    class       volSymmTensorField;
    location    "6";
    object      turbulenceProperties:devReff;
}
// * * * * * * * * * * * * * * * * * * * * * * * * * * * * * * * * * * * * * //

dimensions      [0 2 -2 0 0 0 0];

internalField   nonuniform List<symmTensor> 
400
(
(1.24169e-16 -1.14116e-16 -0 -2.28759e-16 -0 1.0459e-16)
(-4.44867e-17 1.27993e-16 -0 5.73957e-17 -0 -1.2909e-17)
(1.25826e-17 -2.69325e-17 -0 -1.50603e-17 -0 2.4777e-18)
(-1.48235e-18 6.63207e-18 -0 2.33315e-18 -0 -8.50796e-19)
(2.41554e-19 -2.30632e-18 -0 -4.83108e-19 -0 2.41554e-19)
(4.0984e-19 -1.5042e-19 -0 -1.88124e-19 -0 -2.21716e-19)
(6.17056e-19 -7.07728e-19 -0 -6.02556e-19 -0 -1.44995e-20)
(6.46965e-19 -1.7704e-19 -0 -6.62374e-19 -0 1.54095e-20)
(6.29558e-19 -1.5665e-19 -0 -6.27561e-19 -0 -1.99705e-21)
(9.26596e-19 6.41585e-20 -0 -5.90082e-19 -0 -3.36514e-19)
(-7.72874e-19 -3.1072e-19 -0 2.82637e-19 -0 4.90236e-19)
(1.90555e-20 6.75408e-20 -0 -3.8111e-20 -0 1.90555e-20)
(7.56872e-19 -5.84154e-19 -0 -2.50635e-19 -0 -5.06238e-19)
(-9.01622e-19 6.04445e-19 -0 5.40135e-19 -0 3.61488e-19)
(5.20056e-20 -3.6035e-19 -0 -1.04011e-19 -0 5.20056e-20)
(9.66813e-19 9.67645e-20 -0 -6.70516e-19 -0 -2.96297e-19)
(-3.11613e-20 1.25916e-19 -0 6.23226e-20 -0 -3.11613e-20)
(-9.34166e-19 -1.5101e-19 -0 6.05222e-19 -0 3.28944e-19)
(1.97493e-20 -8.84125e-20 -0 -3.94985e-20 -0 1.97493e-20)
(-8.4218e-20 3.64871e-20 -0 1.68436e-19 -0 -8.4218e-20)
(-2.09294e-16 -3.965e-17 -0 3.82462e-16 -0 -1.73168e-16)
(7.41252e-17 3.70872e-17 -0 -9.67784e-17 -0 2.26532e-17)
(-1.80196e-17 -6.03187e-18 -0 2.33332e-17 -0 -5.31359e-18)
(1.0181e-18 2.10256e-18 -0 -3.30667e-18 -0 2.28857e-18)
(-9.93679e-19 1.05282e-18 -0 1.35224e-18 -0 -3.58564e-19)
(-7.36601e-20 8.54982e-19 -0 1.4732e-19 -0 -7.36601e-20)
(-1.49375e-18 9.88848e-19 -0 1.08273e-18 -0 4.11027e-19)
(-5.61896e-19 1.59115e-19 -0 4.88932e-19 -0 7.29637e-20)
(-1.60646e-20 5.32473e-20 -0 3.21292e-20 -0 -1.60646e-20)
(2.47487e-20 1.45538e-19 -0 -4.94975e-20 -0 2.47487e-20)
(-5.9889e-21 4.10861e-19 -0 1.19778e-20 -0 -5.9889e-21)
(1.23015e-20 1.6482e-19 -0 -2.46031e-20 -0 1.23015e-20)
(4.60154e-20 7.05183e-19 -0 -9.20308e-20 -0 4.60154e-20)
(4.91303e-19 -1.79475e-19 -0 -3.48312e-19 -0 -1.4299e-19)
(-3.27271e-19 8.42652e-20 -0 2.03685e-20 -0 3.06903e-19)
(9.46072e-20 6.62203e-19 -0 -1.89214e-19 -0 9.46072e-20)
(5.33145e-19 2.00099e-19 -0 -4.32304e-19 -0 -1.00841e-19)
(1.30264e-18 7.49232e-20 -0 -7.03541e-19 -0 -5.99104e-19)
(-1.36448e-19 7.68794e-20 -0 2.72896e-19 -0 -1.36448e-19)
(-9.26794e-19 -1.33656e-19 -0 5.86063e-19 -0 3.40731e-19)
(4.23861e-17 1.60921e-16 -0 -8.03143e-17 -0 3.79282e-17)
(-1.2433e-17 -1.5209e-16 -0 1.9118e-17 -0 -6.68498e-18)
(2.57911e-18 3.05996e-17 -0 -3.88121e-18 -0 1.30211e-18)
(-8.37099e-19 -8.10662e-18 -0 1.03577e-18 -0 -1.9867e-19)
(7.56273e-19 1.54863e-18 -0 -8.74255e-19 -0 1.17981e-19)
(1.48309e-18 -3.57807e-20 -0 -1.05153e-18 -0 -4.31563e-19)
(7.40848e-21 3.40105e-19 -0 -1.4817e-20 -0 7.40848e-21)
(-1.23842e-19 7.83912e-19 -0 2.47685e-19 -0 -1.23842e-19)
(-5.67084e-19 1.1902e-18 -0 4.96287e-19 -0 7.0797e-20)
(-2.50015e-20 6.87415e-19 -0 5.00031e-20 -0 -2.50015e-20)
(-4.14615e-20 9.80374e-19 -0 8.2923e-20 -0 -4.14615e-20)
(1.44619e-20 6.27385e-19 -0 -2.89239e-20 -0 1.44619e-20)
(5.78564e-19 9.19417e-19 -0 -5.19656e-19 -0 -5.89081e-20)
(1.06347e-19 2.16696e-19 -0 -2.12695e-19 -0 1.06347e-19)
(-7.28224e-20 8.71452e-19 -0 1.45645e-19 -0 -7.28224e-20)
(-1.98161e-19 3.93605e-19 -0 3.96322e-19 -0 -1.98161e-19)
(-5.06964e-19 8.54178e-19 -0 3.76861e-19 -0 1.30103e-19)
(-9.32596e-19 8.56885e-19 -0 5.91206e-19 -0 3.4139e-19)
(-5.20445e-19 -2.31884e-19 -0 4.03962e-19 -0 1.16483e-19)
(4.32529e-19 -6.10514e-19 -0 -2.28228e-19 -0 -2.043e-19)
(1.1852e-16 -8.93438e-17 -0 -2.05061e-16 -0 8.65413e-17)
(-4.98269e-17 9.50298e-17 -0 5.7315e-17 -0 -7.48816e-18)
(1.3314e-17 -1.87446e-17 -0 -1.44431e-17 -0 1.12904e-18)
(-1.08624e-18 4.54742e-18 -0 2.17248e-18 -0 -1.08624e-18)
(7.4519e-19 -1.79173e-18 -0 -8.49284e-19 -0 1.04094e-19)
(3.36598e-20 -5.72964e-19 -0 -6.73197e-20 -0 3.36598e-20)
(3.89088e-20 -7.47082e-19 -0 -7.78175e-20 -0 3.89088e-20)
(-1.39202e-20 -8.96116e-19 -0 2.78403e-20 -0 -1.39202e-20)
(-5.08793e-19 -1.05611e-18 -0 3.76927e-19 -0 1.31866e-19)
(1.17413e-20 -1.28544e-18 -0 -2.34825e-20 -0 1.17413e-20)
(4.29142e-19 -9.25656e-19 -0 -2.17842e-19 -0 -2.113e-19)
(5.17498e-20 -1.27525e-19 -0 -1.035e-19 -0 5.17498e-20)
(-3.79518e-19 -1.02731e-18 -0 1.1881e-19 -0 2.60708e-19)
(3.64962e-19 -1.60138e-19 -0 -8.97782e-20 -0 -2.75184e-19)
(-1.84063e-19 -7.3625e-19 -0 3.68126e-19 -0 -1.84063e-19)
(-1.52498e-18 -2.77365e-19 -0 1.13016e-18 -0 3.94819e-19)
(-5.46614e-19 -9.30759e-19 -0 4.53432e-19 -0 9.31823e-20)
(4.10458e-19 -8.63492e-19 -0 -1.81198e-19 -0 -2.2926e-19)
(-3.90348e-19 -5.98641e-20 -0 1.41047e-19 -0 2.49301e-19)
(5.13104e-19 -2.67189e-19 -0 -3.86665e-19 -0 -1.2644e-19)
(-1.27141e-16 -2.32715e-17 -0 2.38886e-16 -0 -1.11745e-16)
(4.35571e-17 4.30594e-18 -0 -5.94432e-17 -0 1.58861e-17)
(-1.22724e-17 -2.92342e-18 -0 1.4895e-17 -0 -2.62257e-18)
(-1.38608e-19 -1.9334e-19 -0 -1.65253e-18 -0 1.79113e-18)
(-1.34232e-18 -1.08908e-18 -0 1.39845e-18 -0 -5.61283e-20)
(-5.57791e-19 -5.81014e-19 -0 4.72567e-19 -0 8.52244e-20)
(-4.85263e-19 -8.71497e-19 -0 3.27659e-19 -0 1.57604e-19)
(4.44539e-19 -6.35711e-19 -0 -2.46293e-19 -0 -1.98246e-19)
(-6.83096e-20 -7.6745e-19 -0 1.36619e-19 -0 -6.83096e-20)
(-5.34486e-19 -3.97475e-19 -0 4.26415e-19 -0 1.08071e-19)
(4.9291e-19 -6.78587e-19 -0 -3.43407e-19 -0 -1.49503e-19)
(6.19681e-19 -1.36285e-18 -0 -5.97032e-19 -0 -2.26494e-20)
(5.4637e-19 -5.08407e-19 -0 -4.50552e-19 -0 -9.58177e-20)
(-4.6518e-19 -1.03881e-18 -0 2.88255e-19 -0 1.76925e-19)
(-3.40598e-20 -4.51168e-19 -0 6.81195e-20 -0 -3.40598e-20)
(8.5605e-19 -9.83452e-19 -0 -4.28338e-19 -0 -4.27712e-19)
(-9.15668e-19 1.94973e-19 -0 5.47857e-19 -0 3.67811e-19)
(5.22982e-20 -1.34434e-20 -0 -1.04596e-19 -0 5.22982e-20)
(1.37886e-19 -6.74155e-20 -0 -2.75772e-19 -0 1.37886e-19)
(9.37578e-19 2.11294e-19 -0 -5.92202e-19 -0 -3.45376e-19)
(6.31378e-17 7.78112e-17 -0 -1.33345e-16 -0 7.02077e-17)
(-1.24924e-17 -8.28786e-17 -0 2.62744e-17 -0 -1.3782e-17)
(4.07547e-18 1.52284e-17 -0 -6.86175e-18 -0 2.78628e-18)
(1.14583e-18 -4.11997e-18 -0 2.86406e-19 -0 -1.43223e-18)
(1.73343e-19 1.08457e-18 -0 -3.46687e-19 -0 1.73343e-19)
(3.91934e-19 -2.5287e-19 -0 -1.39592e-19 -0 -2.52342e-19)
(4.0363e-20 3.19302e-19 -0 -8.0726e-20 -0 4.0363e-20)
(1.29692e-19 8.29164e-20 -0 -2.59384e-19 -0 1.29692e-19)
(6.26466e-19 7.31858e-19 -0 -6.09041e-19 -0 -1.74254e-20)
(-3.39969e-19 4.39696e-19 -0 3.61316e-20 -0 3.03837e-19)
(5.65933e-19 8.75271e-19 -0 -4.88207e-19 -0 -7.77262e-20)
(-4.68512e-19 1.07836e-18 -0 2.9345e-19 -0 1.75062e-19)
(-5.74953e-19 2.76154e-19 -0 5.06478e-19 -0 6.84748e-20)
(3.18679e-19 3.8962e-19 -0 5.98435e-21 -0 -3.24663e-19)
(1.21672e-20 1.68807e-19 -0 -2.43344e-20 -0 1.21672e-20)
(6.0403e-19 -2.39709e-19 -0 -5.64947e-19 -0 -3.90829e-20)
(5.84733e-19 -6.92183e-19 -0 -5.26497e-19 -0 -5.8235e-20)
(1.39325e-19 1.20572e-19 -0 -2.78651e-19 -0 1.39325e-19)
(9.54234e-20 2.16164e-19 -0 -1.90847e-19 -0 9.54234e-20)
(5.28655e-21 6.23275e-20 -0 -1.05731e-20 -0 5.28655e-21)
(3.3983e-17 -7.62923e-17 -0 -6.66792e-17 -0 3.26961e-17)
(-1.01788e-17 9.84848e-17 -0 1.58387e-17 -0 -5.65994e-18)
(3.15078e-18 -1.63098e-17 -0 -4.3655e-18 -0 1.21472e-18)
(2.28432e-19 5.34265e-18 -0 1.88407e-19 -0 -4.16839e-19)
(2.53827e-19 3.61728e-19 -0 -5.07654e-19 -0 2.53827e-19)
(-3.6149e-19 1.55191e-18 -0 7.79496e-20 -0 2.8354e-19)
(5.00218e-19 1.13163e-18 -0 -3.5556e-19 -0 -1.44658e-19)
(5.22486e-19 1.06106e-18 -0 -4.00182e-19 -0 -1.22303e-19)
(2.02467e-19 9.02452e-19 -0 -4.04934e-19 -0 2.02467e-19)
(1.01652e-18 9.8098e-19 -0 -7.43943e-19 -0 -2.7258e-19)
(3.38791e-19 1.56962e-19 -0 -3.31781e-20 -0 -3.05612e-19)
(-8.44948e-19 3.4632e-19 -0 1.04558e-18 -0 -2.00633e-19)
(-2.09502e-18 2.4048e-19 -0 1.61337e-18 -0 4.81651e-19)
(-3.42765e-20 3.30694e-19 -0 6.85529e-20 -0 -3.42765e-20)
(7.68063e-20 4.06571e-19 -0 -1.53613e-19 -0 7.68063e-20)
(1.28112e-19 4.06971e-19 -0 -2.56224e-19 -0 1.28112e-19)
(1.47421e-19 5.71338e-19 -0 -2.94843e-19 -0 1.47421e-19)
(9.30755e-19 7.21183e-19 -0 -5.74281e-19 -0 -3.56474e-19)
(-4.14201e-19 1.33641e-19 -0 1.84861e-19 -0 2.2934e-19)
(4.16705e-19 -2.80278e-19 -0 -1.89985e-19 -0 -2.2672e-19)
(-9.84833e-17 1.83481e-17 -0 2.03405e-16 -0 -1.04922e-16)
(1.96381e-17 -2.8837e-17 -0 -4.12141e-17 -0 2.15761e-17)
(-5.84557e-18 5.12916e-18 -0 1.03995e-17 -0 -4.55395e-18)
(-2.16081e-19 -1.39421e-18 -0 -1.50501e-18 -0 1.72109e-18)
(2.14733e-19 3.58177e-19 -0 2.16098e-19 -0 -4.30831e-19)
(4.8391e-20 2.20644e-20 -0 -9.67821e-20 -0 4.8391e-20)
(9.00826e-19 -3.89779e-20 -0 -5.11005e-19 -0 -3.89821e-19)
(-8.08556e-20 -1.15402e-19 -0 1.61711e-19 -0 -8.08556e-20)
(-1.07667e-18 -3.31286e-19 -0 8.63169e-19 -0 2.135e-19)
(-6.25013e-19 -4.09273e-19 -0 6.05029e-19 -0 1.99838e-20)
(-1.14413e-18 -8.43089e-19 -0 9.98572e-19 -0 1.4556e-19)
(-5.50692e-19 -7.46223e-19 -0 4.56626e-19 -0 9.40665e-20)
(8.64947e-20 2.7031e-20 -0 -1.72989e-19 -0 8.64947e-20)
(1.51376e-18 3.11098e-20 -0 -1.09396e-18 -0 -4.19801e-19)
(5.81457e-19 -7.46473e-20 -0 -5.18542e-19 -0 -6.29152e-20)
(5.49637e-21 -2.40642e-20 -0 -1.09927e-20 -0 5.49637e-21)
(-8.61739e-20 6.78095e-19 -0 1.72348e-19 -0 -8.61739e-20)
(-1.36976e-18 -6.4629e-19 -0 8.07361e-19 -0 5.62397e-19)
(2.86945e-20 2.19162e-20 -0 -5.7389e-20 -0 2.86945e-20)
(1.91883e-20 3.88241e-19 -0 -3.83767e-20 -0 1.91883e-20)
(7.01005e-17 3.97841e-17 -0 -1.50508e-16 -0 8.04071e-17)
(-1.07634e-17 -5.15677e-17 -0 2.92823e-17 -0 -1.85189e-17)
(3.50602e-18 8.61134e-18 -0 -7.01203e-18 -0 3.50602e-18)
(9.5996e-19 -2.45266e-18 -0 6.6413e-19 -0 -1.62409e-18)
(-7.13341e-19 -6.80524e-19 -0 1.34978e-19 -0 5.78363e-19)
(9.57573e-20 -1.41358e-18 -0 -1.91515e-19 -0 9.57573e-20)
(9.95748e-20 -6.0996e-19 -0 -1.9915e-19 -0 9.95748e-20)
(-7.64336e-20 -1.13416e-18 -0 1.52867e-19 -0 -7.64336e-20)
(-1.82026e-19 -1.18393e-18 -0 3.64051e-19 -0 -1.82026e-19)
(-7.53894e-20 -2.06612e-19 -0 1.50779e-19 -0 -7.53894e-20)
(2.02297e-20 3.68504e-19 -0 -4.04593e-20 -0 2.02297e-20)
(5.51667e-19 7.57808e-19 -0 -4.58292e-19 -0 -9.33745e-20)
(4.95352e-19 4.46042e-20 -0 -3.45812e-19 -0 -1.4954e-19)
(-9.6e-19 -8.95204e-20 -0 6.30395e-19 -0 3.29605e-19)
(-1.88413e-20 9.12738e-20 -0 3.76826e-20 -0 -1.88413e-20)
(4.24103e-20 1.20089e-19 -0 -8.48206e-20 -0 4.24103e-20)
(5.43751e-20 -5.86063e-19 -0 -1.0875e-19 -0 5.43751e-20)
(4.28923e-19 -9.47103e-20 -0 -2.13516e-19 -0 -2.15407e-19)
(-7.12378e-20 -3.39659e-19 -0 1.42476e-19 -0 -7.12378e-20)
(4.13846e-19 1.13328e-19 -0 -1.83554e-19 -0 -2.30293e-19)
(-1.65166e-17 -5.26826e-17 -0 3.30333e-17 -0 -1.65166e-17)
(3.65551e-18 7.81991e-17 -0 -7.31101e-18 -0 3.65551e-18)
(-1.21121e-18 -1.43917e-17 -0 1.77611e-18 -0 -5.64902e-19)
(-2.63671e-19 2.99673e-18 -0 -1.18879e-19 -0 3.8255e-19)
(4.36338e-19 -9.29444e-19 -0 -2.26615e-19 -0 -2.09723e-19)
(4.48661e-19 9.43695e-20 -0 -2.51346e-19 -0 -1.97315e-19)
(-2.90005e-20 -4.26476e-19 -0 5.8001e-20 -0 -2.90005e-20)
(-4.30145e-19 -1.5774e-20 -0 2.14558e-19 -0 2.15587e-19)
(5.19968e-19 -3.33063e-19 -0 -3.9436e-19 -0 -1.25608e-19)
(1.29828e-19 -6.75463e-20 -0 -2.59655e-19 -0 1.29828e-19)
(1.49904e-18 1.51306e-19 -0 -1.06208e-18 -0 -4.36966e-19)
(-3.97375e-19 -4.92005e-19 -0 1.49503e-19 -0 2.47872e-19)
(-7.80738e-20 -6.07656e-19 -0 1.56148e-19 -0 -7.80738e-20)
(-5.47576e-20 -4.87444e-19 -0 1.09515e-19 -0 -5.47576e-20)
(4.87784e-19 3.56103e-19 -0 -3.3071e-19 -0 -1.57074e-19)
(-4.20215e-19 5.10813e-19 -0 1.9566e-19 -0 2.24555e-19)
(-1.6339e-20 9.85503e-20 -0 3.2678e-20 -0 -1.6339e-20)
(-4.16035e-20 1.8624e-19 -0 8.3207e-20 -0 -4.16035e-20)
(-9.3783e-19 4.43676e-20 -0 5.86743e-19 -0 3.51087e-19)
(-1.63657e-20 -6.38872e-20 -0 3.27314e-20 -0 -1.63657e-20)
(-1.93043e-17 4.84872e-17 -0 5.21439e-17 -0 -3.28396e-17)
(-5.40647e-18 -7.23815e-17 -0 -6.00083e-18 -0 1.14073e-17)
(1.01446e-18 1.48185e-17 -0 1.2035e-18 -0 -2.21796e-18)
(-1.06098e-18 -2.01726e-18 -0 1.82753e-19 -0 8.78223e-19)
(-1.61862e-19 1.15836e-18 -0 3.23725e-19 -0 -1.61862e-19)
(-6.38443e-19 5.76001e-19 -0 6.30733e-19 -0 7.70944e-21)
(-5.5631e-19 7.08167e-19 -0 4.66626e-19 -0 8.96843e-20)
(-4.12672e-19 1.5938e-18 -0 1.79437e-19 -0 2.33235e-19)
(1.36703e-18 1.52694e-18 -0 -7.9681e-19 -0 -5.70223e-19)
(-3.11084e-20 9.06273e-19 -0 6.22169e-20 -0 -3.11084e-20)
(-2.7562e-20 5.14265e-19 -0 5.5124e-20 -0 -2.7562e-20)
(6.77292e-20 -1.02822e-19 -0 -1.35458e-19 -0 6.77292e-20)
(9.57379e-20 1.75987e-19 -0 -1.91476e-19 -0 9.57379e-20)
(6.07337e-19 6.74211e-19 -0 -5.69494e-19 -0 -3.78436e-20)
(5.37248e-19 -6.50297e-19 -0 -4.29465e-19 -0 -1.07783e-19)
(-6.10673e-20 -4.13433e-19 -0 1.22135e-19 -0 -6.10673e-20)
(-5.27474e-19 -1.87129e-19 -0 4.10156e-19 -0 1.17318e-19)
(4.74184e-19 -1.40354e-21 -0 -3.03662e-19 -0 -1.70521e-19)
(1.03456e-19 2.66918e-19 -0 -2.06912e-19 -0 1.03456e-19)
(4.89396e-19 -3.51256e-19 -0 -3.34281e-19 -0 -1.55115e-19)
(4.80947e-17 -2.59766e-17 -0 -1.18754e-16 -0 7.06593e-17)
(3.33065e-18 4.0543e-17 -0 1.79192e-17 -0 -2.12498e-17)
(2.63509e-18 -7.337e-18 -0 -5.91683e-18 -0 3.28174e-18)
(1.36952e-18 3.47002e-18 -0 4.93813e-19 -0 -1.86333e-18)
(-1.72435e-18 1.02225e-18 -0 8.63073e-19 -0 8.6128e-19)
(8.75522e-19 1.00964e-18 -0 -4.58401e-19 -0 -4.17121e-19)
(9.52511e-19 8.50279e-19 -0 -6.12694e-19 -0 -3.39818e-19)
(5.05929e-19 3.28449e-19 -0 -3.65783e-19 -0 -1.40146e-19)
(-5.13876e-19 1.03218e-18 -0 3.8183e-19 -0 1.32046e-19)
(-1.14715e-18 1.05583e-18 -0 1.00264e-18 -0 1.4451e-19)
(-1.17326e-18 9.71608e-19 -0 1.05517e-18 -0 1.18096e-19)
(-4.72786e-19 1.25947e-18 -0 2.99984e-19 -0 1.72802e-19)
(5.01338e-19 8.41283e-19 -0 -3.57239e-19 -0 -1.441e-19)
(-6.52603e-20 7.85699e-19 -0 1.30521e-19 -0 -6.52603e-20)
(-6.67723e-19 1.03636e-18 -0 6.90249e-19 -0 -2.25256e-20)
(-9.68261e-19 1.14099e-18 -0 6.46306e-19 -0 3.21955e-19)
(-1.32056e-20 9.07839e-19 -0 2.64113e-20 -0 -1.32056e-20)
(-6.90287e-21 5.29529e-19 -0 1.38057e-20 -0 -6.90287e-21)
(-5.03603e-19 6.66143e-19 -0 3.62412e-19 -0 1.41191e-19)
(3.90374e-19 1.80881e-19 -0 -1.36072e-19 -0 -2.54302e-19)
(-5.56337e-17 -7.99346e-18 -0 1.40932e-16 -0 -8.52979e-17)
(-3.08846e-18 1.51147e-17 -0 -2.22926e-17 -0 2.5381e-17)
(-1.65048e-18 -2.93142e-18 -0 6.53513e-18 -0 -4.88465e-18)
(-9.9775e-19 -6.51227e-19 -0 -5.91493e-19 -0 1.58924e-18)
(-1.73848e-19 -3.6356e-19 -0 3.47696e-19 -0 -1.73848e-19)
(3.40367e-20 -2.07594e-19 -0 -6.80734e-20 -0 3.40367e-20)
(-5.90007e-19 -3.0018e-20 -0 5.33674e-19 -0 5.63334e-20)
(-9.66858e-19 -7.28946e-19 -0 6.41211e-19 -0 3.25647e-19)
(1.22116e-18 -1.16066e-18 -0 -5.04031e-19 -0 -7.1713e-19)
(-5.03821e-19 -1.33341e-18 -0 3.61635e-19 -0 1.42186e-19)
(3.38244e-20 -1.46556e-18 -0 -6.76489e-20 -0 3.38244e-20)
(4.6464e-19 -6.78097e-19 -0 -2.83516e-19 -0 -1.81124e-19)
(-1.81504e-20 -1.12388e-19 -0 3.63008e-20 -0 -1.81504e-20)
(7.34422e-19 -7.98849e-19 -0 -1.778e-19 -0 -5.56622e-19)
(-1.01337e-18 -9.08977e-19 -0 7.36008e-19 -0 2.77366e-19)
(6.52583e-21 -1.07291e-18 -0 -1.30517e-20 -0 6.52583e-21)
(1.38189e-20 -6.61615e-19 -0 -2.76377e-20 -0 1.38189e-20)
(-1.4485e-19 -8.78126e-19 -0 2.897e-19 -0 -1.4485e-19)
(-6.63466e-19 -6.64011e-21 -0 6.81966e-19 -0 -1.84997e-20)
(-1.02592e-18 -1.98765e-19 -0 7.62138e-19 -0 2.63779e-19)
(4.15069e-17 4.59759e-17 -0 -9.5915e-17 -0 5.44081e-17)
(-2.47197e-18 -6.8219e-17 -0 1.78885e-17 -0 -1.54166e-17)
(1.58601e-18 1.28164e-17 -0 -4.46607e-18 -0 2.88006e-18)
(1.28503e-18 -3.91876e-18 -0 1.77212e-20 -0 -1.30275e-18)
(2.26437e-19 -8.4833e-19 -0 -4.52874e-19 -0 2.26437e-19)
(4.16e-19 -9.51871e-19 -0 -1.85306e-19 -0 -2.30694e-19)
(-5.68827e-19 -1.2032e-18 -0 4.91119e-19 -0 7.77076e-20)
(-1.55282e-18 -4.49911e-19 -0 1.1663e-18 -0 3.8652e-19)
(-5.23356e-19 -3.07827e-19 -0 4.00423e-19 -0 1.22933e-19)
(1.60093e-19 -7.01922e-20 -0 -3.20186e-19 -0 1.60093e-19)
(6.55129e-19 -4.80881e-19 -0 -6.64212e-19 -0 9.08337e-21)
(4.93023e-19 -5.99691e-19 -0 -3.40092e-19 -0 -1.52932e-19)
(-6.81181e-20 -5.32055e-19 -0 1.36236e-19 -0 -6.81181e-20)
(-9.1362e-19 -6.25925e-19 -0 5.35815e-19 -0 3.77805e-19)
(-3.35958e-19 -7.76176e-19 -0 2.63556e-20 -0 3.09602e-19)
(4.59072e-19 -7.22146e-19 -0 -2.72674e-19 -0 -1.86399e-19)
(3.30603e-20 -4.77793e-19 -0 -6.61207e-20 -0 3.30603e-20)
(3.06137e-20 -6.69135e-20 -0 -6.12274e-20 -0 3.06137e-20)
(5.00202e-19 -9.14387e-19 -0 -3.55249e-19 -0 -1.44953e-19)
(4.23209e-19 -4.18541e-19 -0 -2.01382e-19 -0 -2.21827e-19)
(1.15551e-17 -7.49708e-17 -0 -1.34312e-17 -0 1.87603e-18)
(-9.19621e-18 9.04495e-17 -0 6.0909e-18 -0 3.10531e-18)
(1.5169e-18 -1.76312e-17 -0 -1.09207e-18 -0 -4.24833e-19)
(-9.42791e-19 4.30023e-18 -0 5.9126e-19 -0 3.51531e-19)
(-7.90793e-20 -3.54378e-19 -0 1.58159e-19 -0 -7.90793e-20)
(-6.66608e-20 3.38824e-19 -0 1.33322e-19 -0 -6.66608e-20)
(4.73637e-19 1.39642e-20 -0 -3.00524e-19 -0 -1.73113e-19)
(3.82165e-19 -1.50667e-19 -0 -1.1767e-19 -0 -2.64495e-19)
(3.82427e-19 -1.75312e-19 -0 -1.1835e-19 -0 -2.64078e-19)
(2.42371e-20 -1.93825e-19 -0 -4.84742e-20 -0 2.42371e-20)
(-5.63863e-19 -2.74239e-20 -0 4.81466e-19 -0 8.23968e-20)
(-4.89522e-19 -5.62658e-19 -0 3.32877e-19 -0 1.56646e-19)
(9.73643e-19 -5.85844e-19 -0 -6.55254e-19 -0 -3.18389e-19)
(9.65298e-19 -7.436e-20 -0 -6.38748e-19 -0 -3.2655e-19)
(3.97561e-20 5.82718e-19 -0 -7.95122e-20 -0 3.97561e-20)
(-9.12593e-19 3.09823e-19 -0 5.33822e-19 -0 3.78771e-19)
(-3.38997e-20 3.0347e-19 -0 6.77994e-20 -0 -3.38997e-20)
(-3.53812e-19 6.7934e-19 -0 6.21833e-20 -0 2.91629e-19)
(1.91266e-19 3.72196e-19 -0 -3.82532e-19 -0 1.91266e-19)
(5.30487e-19 2.18672e-19 -0 -4.15728e-19 -0 -1.14759e-19)
(-7.95424e-17 5.40405e-17 -0 1.46175e-16 -0 -6.66322e-17)
(2.90346e-17 -6.38339e-17 -0 -3.79908e-17 -0 8.95615e-18)
(-7.48047e-18 1.17763e-17 -0 9.13356e-18 -0 -1.65308e-18)
(1.13322e-18 -2.82175e-18 -0 -1.61903e-18 -0 4.85814e-19)
(-4.1858e-19 7.49328e-19 -0 8.3716e-19 -0 -4.1858e-19)
(-1.62042e-18 -1.64209e-19 -0 1.29938e-18 -0 3.21037e-19)
(-1.07142e-18 6.33833e-20 -0 8.48859e-19 -0 2.2256e-19)
(9.13176e-20 9.85168e-21 -0 -1.82635e-19 -0 9.13176e-20)
(5.47459e-19 -4.17839e-19 -0 -4.48175e-19 -0 -9.92837e-20)
(6.51062e-21 -5.90119e-19 -0 -1.30212e-20 -0 6.51062e-21)
(-5.1849e-19 -3.34482e-20 -0 3.90483e-19 -0 1.28007e-19)
(5.31929e-20 -3.21818e-19 -0 -1.06386e-19 -0 5.31929e-20)
(1.43335e-19 5.15773e-19 -0 -2.86669e-19 -0 1.43335e-19)
(5.31266e-19 1.28601e-19 -0 -4.16371e-19 -0 -1.14895e-19)
(-3.898e-19 1.02977e-19 -0 1.33592e-19 -0 2.56208e-19)
(5.0296e-19 3.56759e-19 -0 -3.60003e-19 -0 -1.42957e-19)
(2.49514e-21 2.98209e-19 -0 -4.99028e-21 -0 2.49514e-21)
(4.66608e-19 -4.04857e-19 -0 -2.8754e-19 -0 -1.79068e-19)
(3.6108e-20 1.75658e-20 -0 -7.22159e-20 -0 3.6108e-20)
(2.2287e-20 1.86603e-20 -0 -4.4574e-20 -0 2.2287e-20)
(1.16582e-16 3.19074e-17 -0 -2.20249e-16 -0 1.03667e-16)
(-3.85505e-17 -1.86651e-17 -0 5.37748e-17 -0 -1.52243e-17)
(1.00359e-17 4.7776e-18 -0 -1.29467e-17 -0 2.91072e-18)
(-6.97482e-19 -1.11059e-18 -0 2.04263e-18 -0 -1.34514e-18)
(7.75331e-19 2.16111e-19 -0 -9.03165e-19 -0 1.27834e-19)
(3.96381e-19 -2.99302e-19 -0 -1.45354e-19 -0 -2.51027e-19)
(-3.43088e-20 3.58552e-19 -0 6.86175e-20 -0 -3.43088e-20)
(4.98985e-20 3.32165e-19 -0 -9.9797e-20 -0 4.98985e-20)
(6.68486e-20 5.98779e-19 -0 -1.33697e-19 -0 6.68486e-20)
(2.32133e-20 1.11839e-19 -0 -4.64266e-20 -0 2.32133e-20)
(1.01668e-18 5.49242e-19 -0 -7.39855e-19 -0 -2.76824e-19)
(9.83289e-20 3.83824e-19 -0 -1.96658e-19 -0 9.83289e-20)
(8.27239e-19 -1.07989e-20 -0 -3.61469e-19 -0 -4.6577e-19)
(2.89512e-20 7.92934e-20 -0 -5.79025e-20 -0 2.89512e-20)
(6.40992e-20 -2.09214e-20 -0 -1.28198e-19 -0 6.40992e-20)
(-8.62716e-19 4.45504e-20 -0 4.33094e-19 -0 4.29623e-19)
(-5.21383e-20 3.49645e-20 -0 1.04277e-19 -0 -5.21383e-20)
(-8.06279e-21 3.06441e-19 -0 1.61256e-20 -0 -8.06279e-21)
(-1.79243e-20 7.03522e-20 -0 3.58485e-20 -0 -1.79243e-20)
(3.14375e-20 -1.64127e-20 -0 -6.2875e-20 -0 3.14375e-20)
(-6.56255e-18 -1.12948e-16 -0 3.12131e-17 -0 -2.46506e-17)
(-9.65242e-18 1.04366e-16 -0 5.06838e-19 -0 9.14558e-18)
(1.78085e-18 -1.94018e-17 -0 3.26307e-19 -0 -2.10715e-18)
(-2.08621e-18 5.88676e-18 -0 9.3284e-19 -0 1.15337e-18)
(9.80602e-19 4.04167e-19 -0 -6.65706e-19 -0 -3.14895e-19)
(1.37232e-19 1.37428e-18 -0 -2.74463e-19 -0 1.37232e-19)
(4.54201e-19 5.832e-19 -0 -2.60905e-19 -0 -1.93297e-19)
(-1.31198e-19 8.2916e-19 -0 2.62395e-19 -0 -1.31198e-19)
(-5.364e-19 9.16351e-19 -0 4.25552e-19 -0 1.10848e-19)
(-8.75436e-19 5.72372e-19 -0 4.56557e-19 -0 4.18879e-19)
(1.03436e-18 -1.4622e-19 -0 -7.74729e-19 -0 -2.59636e-19)
(-8.42603e-19 6.08596e-19 -0 3.91389e-19 -0 4.51214e-19)
(-5.74367e-19 6.20238e-19 -0 5.01981e-19 -0 7.2386e-20)
(-6.41032e-20 -1.9671e-20 -0 1.28206e-19 -0 -6.41032e-20)
(-5.09583e-20 1.48227e-19 -0 1.01917e-19 -0 -5.09583e-20)
(3.31353e-19 -1.14954e-19 -0 -1.62901e-20 -0 -3.15063e-19)
(-5.15499e-20 -1.4328e-20 -0 1.031e-19 -0 -5.15499e-20)
(-5.28188e-20 5.12762e-19 -0 1.05638e-19 -0 -5.28188e-20)
(-4.71801e-19 -4.1701e-20 -0 2.97509e-19 -0 1.74293e-19)
(4.69424e-19 3.89571e-20 -0 -2.92875e-19 -0 -1.76549e-19)
(-1.55745e-16 3.19776e-17 -0 2.73365e-16 -0 -1.1762e-16)
(6.10399e-17 -4.25765e-17 -0 -7.21553e-17 -0 1.11153e-17)
(-1.34139e-17 4.45236e-18 -0 1.64571e-17 -0 -3.04318e-18)
(1.79885e-18 -3.15181e-18 -0 -2.9496e-18 -0 1.15076e-18)
(-7.85795e-19 -1.17527e-18 -0 9.23661e-19 -0 -1.37866e-19)
(8.69489e-20 -1.45358e-18 -0 -1.73898e-19 -0 8.69489e-20)
(4.22807e-20 -1.18153e-18 -0 -8.45615e-20 -0 4.22807e-20)
(2.30128e-20 -1.74295e-18 -0 -4.60255e-20 -0 2.30128e-20)
(-7.60135e-21 -1.5211e-18 -0 1.52027e-20 -0 -7.60135e-21)
(1.34358e-20 -6.26822e-19 -0 -2.68716e-20 -0 1.34358e-20)
(6.68271e-21 -4.69941e-19 -0 -1.33654e-20 -0 6.68271e-21)
(3.72452e-19 -4.37619e-19 -0 -9.77993e-20 -0 -2.74653e-19)
(-1.19047e-19 -5.31647e-19 -0 2.38093e-19 -0 -1.19047e-19)
(-6.1286e-19 -5.90058e-20 -0 5.7886e-19 -0 3.40001e-20)
(-9.91556e-19 3.23563e-20 -0 6.89693e-19 -0 3.01863e-19)
(-3.77317e-20 -2.7781e-19 -0 7.54633e-20 -0 -3.77317e-20)
(7.10867e-20 -3.51446e-20 -0 -1.42173e-19 -0 7.10867e-20)
(3.52132e-21 -6.7861e-19 -0 -7.04265e-21 -0 3.52132e-21)
(-3.72005e-20 -3.90183e-19 -0 7.44011e-20 -0 -3.72005e-20)
(-2.88829e-20 -3.42946e-19 -0 5.77657e-20 -0 -2.88829e-20)
(9.989e-17 9.30455e-17 -0 -1.89439e-16 -0 8.95493e-17)
(-3.29109e-17 -9.49888e-17 -0 4.51405e-17 -0 -1.22296e-17)
(7.62454e-18 2.20455e-17 -0 -1.0725e-17 -0 3.10049e-18)
(4.12644e-20 -3.96672e-18 -0 1.21005e-18 -0 -1.25132e-18)
(2.99511e-19 1.67135e-18 -0 -5.99021e-19 -0 2.99511e-19)
(1.58533e-19 7.78667e-19 -0 -3.17066e-19 -0 1.58533e-19)
(1.14447e-18 6.77775e-19 -0 -9.96361e-19 -0 -1.48111e-19)
(1.11698e-18 5.7925e-19 -0 -9.41371e-19 -0 -1.75606e-19)
(1.55582e-19 2.83033e-19 -0 -3.11164e-19 -0 1.55582e-19)
(5.08834e-19 2.27069e-19 -0 -3.71377e-19 -0 -1.37457e-19)
(-1.10236e-19 2.85522e-19 -0 2.20473e-19 -0 -1.10236e-19)
(-4.75395e-19 1.50121e-19 -0 3.04499e-19 -0 1.70896e-19)
(5.60186e-19 1.57379e-19 -0 -4.74082e-19 -0 -8.61049e-20)
(1.37177e-19 -4.25738e-21 -0 -2.74354e-19 -0 1.37177e-19)
(8.71847e-20 -6.74442e-20 -0 -1.74369e-19 -0 8.71847e-20)
(5.44632e-19 5.54114e-19 -0 -4.42973e-19 -0 -1.01659e-19)
(4.86911e-19 -7.61791e-20 -0 -3.27531e-19 -0 -1.5938e-19)
(-3.91299e-19 2.8968e-20 -0 1.36307e-19 -0 2.54992e-19)
(5.38736e-20 3.30045e-19 -0 -1.07747e-19 -0 5.38736e-20)
(4.30333e-19 2.6299e-19 -0 -2.14374e-19 -0 -2.15959e-19)
)
;

boundaryField
{
    movingWall
    {
        type            calculated;
        value           nonuniform List<symmTensor> 
20
(
(2.23482e-16 3.49119e-17 -0 -4.3829e-16 -0 2.14808e-16)
(-5.8006e-17 -6.55165e-17 -0 9.86648e-17 -0 -4.06588e-17)
(1.3544e-17 2.19232e-17 -0 -2.32932e-17 -0 9.74925e-18)
(-1.46743e-18 1.27469e-19 -0 4.01907e-18 -0 -2.55163e-18)
(6.95924e-19 4.85661e-18 -0 -1.39185e-18 -0 6.95924e-19)
(1.02576e-19 3.83679e-18 -0 -2.05153e-19 -0 1.02576e-19)
(9.92017e-19 2.69094e-18 -0 -8.99831e-19 -0 -9.21854e-20)
(8.95798e-19 2.6083e-18 -0 -7.07394e-19 -0 -1.88404e-19)
(1.19259e-19 1.29862e-18 -0 -2.38517e-19 -0 1.19259e-19)
(4.44676e-19 1.69577e-18 -0 -3.4725e-19 -0 -9.74254e-20)
(-9.5643e-20 8.5662e-19 -0 1.91286e-19 -0 -9.5643e-20)
(-3.62281e-19 1.90228e-18 -0 1.82462e-19 -0 1.7982e-19)
(6.01543e-19 1.90836e-18 -0 -6.60984e-19 -0 5.94414e-20)
(3.51139e-19 8.84607e-19 -0 -7.02277e-19 -0 3.51139e-19)
(2.30619e-19 3.87518e-19 -0 -4.61238e-19 -0 2.30619e-19)
(5.61682e-19 8.10862e-19 -0 -5.81264e-19 -0 1.95813e-20)
(3.85841e-19 -6.3898e-20 -0 -2.29582e-19 -0 -1.5626e-19)
(-3.31514e-19 2.4298e-20 -0 1.20927e-19 -0 2.10587e-19)
(8.92353e-20 4.49877e-19 -0 -1.78471e-19 -0 8.92353e-20)
(4.06721e-19 3.93631e-19 -0 -2.7134e-19 -0 -1.3538e-19)
)
;
    }
    fixedWalls
    {
        type            calculated;
        value           nonuniform List<symmTensor> 
60
(
(1.64064e-16 -4.6228e-16 -0 -2.25098e-16 -0 6.10348e-17)
(-2.72105e-16 -1.28959e-16 -0 3.73681e-16 -0 -1.01575e-16)
(4.53927e-17 5.36478e-16 -0 -7.30218e-17 -0 2.76291e-17)
(1.8068e-16 -3.32701e-16 -0 -2.13922e-16 -0 3.32422e-17)
(-1.5561e-16 -1.82948e-17 -0 2.25956e-16 -0 -7.03452e-17)
(4.59784e-17 2.84838e-16 -0 -1.08832e-16 -0 6.28538e-17)
(3.5013e-17 -3.37272e-16 -0 -5.93679e-17 -0 2.43549e-17)
(-7.70552e-17 1.00045e-16 -0 1.68321e-16 -0 -9.12661e-17)
(4.22754e-17 1.76211e-16 -0 -1.18302e-16 -0 7.60262e-17)
(-1.44874e-17 -2.71263e-16 -0 2.80867e-17 -0 -1.35993e-17)
(1.76226e-17 2.50638e-16 -0 2.69272e-17 -0 -4.45498e-17)
(-6.71434e-18 -1.34272e-16 -0 -7.62773e-17 -0 8.29917e-17)
(1.12151e-17 -5.21793e-17 -0 8.94802e-17 -0 -1.00695e-16)
(7.76688e-18 2.31442e-16 -0 -6.70481e-17 -0 5.92812e-17)
(3.27083e-17 -3.11885e-16 -0 -2.2784e-17 -0 -9.92427e-18)
(-1.05758e-16 2.17649e-16 -0 1.42237e-16 -0 -3.64797e-17)
(1.3801e-16 6.56064e-17 -0 -2.04966e-16 -0 6.69559e-17)
(3.29275e-17 -3.59263e-16 -0 6.97571e-18 -0 -3.99032e-17)
(-2.22428e-16 1.39577e-16 -0 2.75213e-16 -0 -5.27854e-17)
(1.17084e-16 3.40373e-16 -0 -1.75548e-16 -0 5.8464e-17)
(-7.22893e-20 -6.6238e-20 -0 1.44579e-19 -0 -7.22893e-20)
(-1.25419e-18 -3.67498e-19 -0 7.32018e-19 -0 5.22169e-19)
(5.98909e-19 -7.56987e-19 -0 -3.09639e-19 -0 -2.8927e-19)
(6.65644e-19 -3.2676e-19 -0 -4.4311e-19 -0 -2.22534e-19)
(6.61648e-19 2.26267e-19 -0 -4.35118e-19 -0 -2.2653e-19)
(4.45909e-21 9.04156e-20 -0 -8.91818e-21 -0 4.45909e-21)
(5.81802e-19 -2.8908e-19 -0 -2.75426e-19 -0 -3.06376e-19)
(1.61557e-20 2.99566e-19 -0 -3.23114e-20 -0 1.61557e-20)
(-1.31116e-20 7.89049e-20 -0 2.62233e-20 -0 -1.31116e-20)
(-1.37689e-20 -5.01542e-20 -0 2.75378e-20 -0 -1.37689e-20)
(6.42351e-19 -2.74759e-19 -0 -3.96524e-19 -0 -2.45827e-19)
(5.5898e-19 2.51239e-19 -0 -2.29781e-19 -0 -3.29199e-19)
(-1.39651e-19 -2.02545e-19 -0 2.79301e-19 -0 -1.39651e-19)
(5.86391e-19 -5.86665e-19 -0 -2.84604e-19 -0 -3.01787e-19)
(6.76405e-19 3.41405e-20 -0 -4.64632e-19 -0 -2.11773e-19)
(1.87176e-20 -8.09485e-20 -0 -3.74352e-20 -0 1.87176e-20)
(2.63924e-20 -1.24605e-19 -0 -5.27847e-20 -0 2.63924e-20)
(6.2466e-19 7.74057e-20 -0 -3.61141e-19 -0 -2.63519e-19)
(-2.42309e-20 -2.00412e-19 -0 4.84619e-20 -0 -2.42309e-20)
(5.91676e-19 2.03071e-19 -0 -2.95173e-19 -0 -2.96503e-19)
(3.13789e-16 -3.80355e-17 -0 -6.10772e-16 -0 2.96984e-16)
(-8.18556e-17 8.99321e-17 -0 1.36606e-16 -0 -5.47506e-17)
(2.11791e-17 -2.55112e-17 -0 -3.36846e-17 -0 1.25055e-17)
(-3.22245e-18 4.08938e-18 -0 5.9028e-18 -0 -2.68035e-18)
(9.38971e-19 -4.27512e-18 -0 -1.87794e-18 -0 9.38971e-19)
(6.11016e-19 -1.63442e-18 -0 -6.79931e-19 -0 6.89151e-20)
(9.21876e-19 -1.39765e-18 -0 -1.30165e-18 -0 3.79775e-19)
(7.85373e-19 -3.25003e-19 -0 -1.02865e-18 -0 2.43272e-19)
(6.04313e-19 1.36589e-19 -0 -6.66524e-19 -0 6.22115e-20)
(7.82537e-19 9.43249e-19 -0 -4.80872e-19 -0 -3.01665e-19)
(-6.26746e-19 4.34083e-21 -0 1.69289e-19 -0 4.57457e-19)
(4.81601e-20 9.46153e-19 -0 -9.63203e-20 -0 4.81601e-20)
(6.64259e-19 4.06867e-20 -0 -2.44316e-19 -0 -4.19943e-19)
(-7.83139e-19 8.64909e-19 -0 4.82076e-19 -0 3.01063e-19)
(3.51028e-21 -3.82591e-20 -0 -7.02056e-21 -0 3.51028e-21)
(7.64488e-19 8.30587e-20 -0 -4.44774e-19 -0 -3.19714e-19)
(-2.1798e-19 1.88444e-18 -0 4.35959e-19 -0 -2.1798e-19)
(-9.69333e-19 -1.29621e-19 -0 8.54463e-19 -0 1.1487e-19)
(1.27676e-19 -5.19979e-19 -0 -2.55352e-19 -0 1.27676e-19)
(-4.41586e-20 3.1319e-20 -0 8.83173e-20 -0 -4.41586e-20)
)
;
    }
    frontAndBack
    {
        type            empty;
    }
}


// ************************************************************************* //
