/*--------------------------------*- C++ -*----------------------------------*\
| =========                 |                                                 |
| \\      /  F ield         | OpenFOAM: The Open Source CFD Toolbox           |
|  \\    /   O peration     | Version:  2506                                  |
|   \\  /    A nd           | Website:  www.openfoam.com                      |
|    \\/     M anipulation  |                                                 |
\*---------------------------------------------------------------------------*/
FoamFile
{
    version     2.0;
    format      ascii;
    arch        "LSB;label=32;scalar=64";
    class       volSymmTensorField;
    location    "6";
    object      turbulenceProperties:R;
}
// * * * * * * * * * * * * * * * * * * * * * * * * * * * * * * * * * * * * * //

dimensions      [0 2 -2 0 0 0 0];

internalField   nonuniform List<symmTensor> 
400
(
(5.7984e-06 -1.61635e-17 -0 5.7984e-06 -0 5.7984e-06)
(5.79839e-06 1.81291e-17 -0 5.79839e-06 -0 5.79839e-06)
(5.79839e-06 -3.81475e-18 -0 5.79839e-06 -0 5.79839e-06)
(5.79838e-06 9.39373e-19 -0 5.79838e-06 -0 5.79838e-06)
(5.79838e-06 -3.2667e-19 -0 5.79838e-06 -0 5.79838e-06)
(5.79837e-06 -2.13057e-20 -0 5.79837e-06 -0 5.79837e-06)
(5.79837e-06 -1.00243e-19 -0 5.79837e-06 -0 5.79837e-06)
(5.79837e-06 -2.50761e-20 -0 5.79837e-06 -0 5.79837e-06)
(5.79836e-06 -2.2188e-20 -0 5.79836e-06 -0 5.79836e-06)
(5.79836e-06 9.08745e-21 -0 5.79836e-06 -0 5.79836e-06)
(5.79836e-06 -4.40107e-20 -0 5.79836e-06 -0 5.79836e-06)
(5.79836e-06 9.56653e-21 -0 5.79836e-06 -0 5.79836e-06)
(5.79836e-06 -8.27401e-20 -0 5.79836e-06 -0 5.79836e-06)
(5.79836e-06 8.56141e-20 -0 5.79836e-06 -0 5.79836e-06)
(5.79835e-06 -5.10402e-20 -0 5.79835e-06 -0 5.79835e-06)
(5.79835e-06 1.37058e-20 -0 5.79835e-06 -0 5.79835e-06)
(5.79835e-06 1.78349e-20 -0 5.79835e-06 -0 5.79835e-06)
(5.79835e-06 -2.13892e-20 -0 5.79835e-06 -0 5.79835e-06)
(5.79835e-06 -1.25228e-20 -0 5.79835e-06 -0 5.79835e-06)
(5.79835e-06 5.16805e-21 -0 5.79835e-06 -0 5.79835e-06)
(6.09288e-06 -5.73559e-18 -0 6.09288e-06 -0 6.09288e-06)
(6.09289e-06 5.44853e-18 -0 6.09289e-06 -0 6.09289e-06)
(6.09244e-06 -8.84905e-19 -0 6.09244e-06 -0 6.09244e-06)
(6.09228e-06 3.08275e-19 -0 6.09228e-06 -0 6.09228e-06)
(6.09201e-06 1.54189e-19 -0 6.09201e-06 -0 6.09201e-06)
(6.09184e-06 1.25138e-19 -0 6.09184e-06 -0 6.09184e-06)
(6.09162e-06 1.44569e-19 -0 6.09162e-06 -0 6.09162e-06)
(6.09147e-06 2.32481e-20 -0 6.09147e-06 -0 6.09147e-06)
(6.09128e-06 7.77126e-21 -0 6.09128e-06 -0 6.09128e-06)
(6.09115e-06 2.12274e-20 -0 6.09115e-06 -0 6.09115e-06)
(6.091e-06 5.98597e-20 -0 6.091e-06 -0 6.091e-06)
(6.0909e-06 2.39978e-20 -0 6.0909e-06 -0 6.0909e-06)
(6.09078e-06 1.02562e-19 -0 6.09078e-06 -0 6.09078e-06)
(6.0907e-06 -2.60859e-20 -0 6.0907e-06 -0 6.0907e-06)
(6.09062e-06 1.22341e-20 -0 6.09062e-06 -0 6.09062e-06)
(6.09056e-06 9.60801e-20 -0 6.09056e-06 -0 6.09056e-06)
(6.09051e-06 2.90009e-20 -0 6.09051e-06 -0 6.09051e-06)
(6.09048e-06 1.08517e-20 -0 6.09048e-06 -0 6.09048e-06)
(6.09046e-06 1.11289e-20 -0 6.09046e-06 -0 6.09046e-06)
(6.09045e-06 -1.93308e-20 -0 6.09045e-06 -0 6.09045e-06)
(6.51029e-06 2.39412e-17 -0 6.51029e-06 -0 6.51029e-06)
(6.51028e-06 -2.29962e-17 -0 6.51028e-06 -0 6.51028e-06)
(6.50977e-06 4.61978e-18 -0 6.50977e-06 -0 6.50977e-06)
(6.50959e-06 -1.22314e-18 -0 6.50959e-06 -0 6.50959e-06)
(6.50927e-06 2.3338e-19 -0 6.50927e-06 -0 6.50927e-06)
(6.50906e-06 -5.38871e-21 -0 6.50906e-06 -0 6.50906e-06)
(6.50882e-06 5.11607e-20 -0 6.50882e-06 -0 6.50882e-06)
(6.50862e-06 1.17843e-19 -0 6.50862e-06 -0 6.50862e-06)
(6.50844e-06 1.78712e-19 -0 6.50844e-06 -0 6.50844e-06)
(6.50824e-06 1.03148e-19 -0 6.50824e-06 -0 6.50824e-06)
(6.50812e-06 1.46939e-19 -0 6.50812e-06 -0 6.50812e-06)
(6.50794e-06 9.3969e-20 -0 6.50794e-06 -0 6.50794e-06)
(6.50786e-06 1.37553e-19 -0 6.50786e-06 -0 6.50786e-06)
(6.50772e-06 3.23976e-20 -0 6.50772e-06 -0 6.50772e-06)
(6.50767e-06 1.3014e-19 -0 6.50767e-06 -0 6.50767e-06)
(6.50757e-06 5.87404e-20 -0 6.50757e-06 -0 6.50757e-06)
(6.50754e-06 1.2733e-19 -0 6.50754e-06 -0 6.50754e-06)
(6.50749e-06 1.27649e-19 -0 6.50749e-06 -0 6.50749e-06)
(6.50747e-06 -3.45235e-20 -0 6.50747e-06 -0 6.50747e-06)
(6.50746e-06 -9.08133e-20 -0 6.50746e-06 -0 6.50746e-06)
(6.89096e-06 -1.36153e-17 -0 6.89096e-06 -0 6.89096e-06)
(6.89096e-06 1.47241e-17 -0 6.89096e-06 -0 6.89096e-06)
(6.8904e-06 -2.89987e-18 -0 6.8904e-06 -0 6.8904e-06)
(6.89019e-06 7.0306e-19 -0 6.89019e-06 -0 6.89019e-06)
(6.88981e-06 -2.76668e-19 -0 6.88981e-06 -0 6.88981e-06)
(6.88961e-06 -8.84161e-20 -0 6.88961e-06 -0 6.88961e-06)
(6.88929e-06 -1.15145e-19 -0 6.88929e-06 -0 6.88929e-06)
(6.88911e-06 -1.38022e-19 -0 6.88911e-06 -0 6.88911e-06)
(6.88887e-06 -1.6247e-19 -0 6.88887e-06 -0 6.88887e-06)
(6.8887e-06 -1.97615e-19 -0 6.8887e-06 -0 6.8887e-06)
(6.88851e-06 -1.42136e-19 -0 6.88851e-06 -0 6.88851e-06)
(6.88837e-06 -1.95682e-20 -0 6.88837e-06 -0 6.88837e-06)
(6.88822e-06 -1.57451e-19 -0 6.88822e-06 -0 6.88822e-06)
(6.88811e-06 -2.45268e-20 -0 6.88811e-06 -0 6.88811e-06)
(6.88801e-06 -1.12632e-19 -0 6.88801e-06 -0 6.88801e-06)
(6.88794e-06 -4.24025e-20 -0 6.88794e-06 -0 6.88794e-06)
(6.88787e-06 -1.42124e-19 -0 6.88787e-06 -0 6.88787e-06)
(6.88784e-06 -1.31763e-19 -0 6.88784e-06 -0 6.88784e-06)
(6.88781e-06 -9.12948e-21 -0 6.88781e-06 -0 6.88781e-06)
(6.8878e-06 -4.07098e-20 -0 6.8878e-06 -0 6.8878e-06)
(7.16826e-06 -3.60588e-18 -0 7.16826e-06 -0 7.16826e-06)
(7.16826e-06 6.78574e-19 -0 7.16826e-06 -0 7.16826e-06)
(7.16766e-06 -4.59986e-19 -0 7.16766e-06 -0 7.16766e-06)
(7.16743e-06 -3.04013e-20 -0 7.16743e-06 -0 7.16743e-06)
(7.16701e-06 -1.71033e-19 -0 7.16701e-06 -0 7.16701e-06)
(7.1668e-06 -9.11841e-20 -0 7.1668e-06 -0 7.1668e-06)
(7.16645e-06 -1.36602e-19 -0 7.16645e-06 -0 7.16645e-06)
(7.16626e-06 -9.95763e-20 -0 7.16626e-06 -0 7.16626e-06)
(7.16599e-06 -1.20065e-19 -0 7.16599e-06 -0 7.16599e-06)
(7.1658e-06 -6.21404e-20 -0 7.1658e-06 -0 7.1658e-06)
(7.1656e-06 -1.05961e-19 -0 7.1656e-06 -0 7.1656e-06)
(7.16545e-06 -2.1266e-19 -0 7.16545e-06 -0 7.16545e-06)
(7.16529e-06 -7.92367e-20 -0 7.16529e-06 -0 7.16529e-06)
(7.16517e-06 -1.61789e-19 -0 7.16517e-06 -0 7.16517e-06)
(7.16506e-06 -7.01826e-20 -0 7.16506e-06 -0 7.16506e-06)
(7.16498e-06 -1.52877e-19 -0 7.16498e-06 -0 7.16498e-06)
(7.16491e-06 3.02722e-20 -0 7.16491e-06 -0 7.16491e-06)
(7.16487e-06 -2.08583e-21 -0 7.16487e-06 -0 7.16487e-06)
(7.16485e-06 -1.04536e-20 -0 7.16485e-06 -0 7.16485e-06)
(7.16483e-06 3.27331e-20 -0 7.16483e-06 -0 7.16483e-06)
(7.34604e-06 1.21817e-17 -0 7.34604e-06 -0 7.34604e-06)
(7.34604e-06 -1.31989e-17 -0 7.34604e-06 -0 7.34604e-06)
(7.34539e-06 2.42139e-18 -0 7.34539e-06 -0 7.34539e-06)
(7.34514e-06 -6.54663e-19 -0 7.34514e-06 -0 7.34514e-06)
(7.34473e-06 1.72119e-19 -0 7.34473e-06 -0 7.34473e-06)
(7.34447e-06 -4.01026e-20 -0 7.34447e-06 -0 7.34447e-06)
(7.34415e-06 5.05748e-20 -0 7.34415e-06 -0 7.34415e-06)
(7.34391e-06 1.31241e-20 -0 7.34391e-06 -0 7.34391e-06)
(7.34365e-06 1.15697e-19 -0 7.34365e-06 -0 7.34365e-06)
(7.34345e-06 6.94611e-20 -0 7.34345e-06 -0 7.34345e-06)
(7.34324e-06 1.38102e-19 -0 7.34324e-06 -0 7.34324e-06)
(7.34307e-06 1.70026e-19 -0 7.34307e-06 -0 7.34307e-06)
(7.34291e-06 4.34884e-20 -0 7.34291e-06 -0 7.34291e-06)
(7.34278e-06 6.13135e-20 -0 7.34278e-06 -0 7.34278e-06)
(7.34267e-06 2.65326e-20 -0 7.34267e-06 -0 7.34267e-06)
(7.34258e-06 -3.76502e-20 -0 7.34258e-06 -0 7.34258e-06)
(7.34251e-06 -1.08587e-19 -0 7.34251e-06 -0 7.34251e-06)
(7.34247e-06 1.89017e-20 -0 7.34247e-06 -0 7.34247e-06)
(7.34244e-06 3.38667e-20 -0 7.34244e-06 -0 7.34244e-06)
(7.34243e-06 9.75564e-21 -0 7.34243e-06 -0 7.34243e-06)
(7.45306e-06 -1.20168e-17 -0 7.45306e-06 -0 7.45306e-06)
(7.45306e-06 1.57819e-17 -0 7.45306e-06 -0 7.45306e-06)
(7.45236e-06 -2.60942e-18 -0 7.45236e-06 -0 7.45236e-06)
(7.45214e-06 8.54219e-19 -0 7.45214e-06 -0 7.45214e-06)
(7.4517e-06 5.7761e-20 -0 7.4517e-06 -0 7.4517e-06)
(7.45145e-06 2.47641e-19 -0 7.45145e-06 -0 7.45145e-06)
(7.45112e-06 1.80349e-19 -0 7.45112e-06 -0 7.45112e-06)
(7.45086e-06 1.68983e-19 -0 7.45086e-06 -0 7.45086e-06)
(7.45062e-06 1.43546e-19 -0 7.45062e-06 -0 7.45062e-06)
(7.45037e-06 1.55925e-19 -0 7.45037e-06 -0 7.45037e-06)
(7.4502e-06 2.49183e-20 -0 7.4502e-06 -0 7.4502e-06)
(7.44997e-06 5.49399e-20 -0 7.44997e-06 -0 7.44997e-06)
(7.44986e-06 3.81034e-20 -0 7.44986e-06 -0 7.44986e-06)
(7.44968e-06 5.23597e-20 -0 7.44968e-06 -0 7.44968e-06)
(7.4496e-06 6.42956e-20 -0 7.4496e-06 -0 7.4496e-06)
(7.44948e-06 6.43127e-20 -0 7.44948e-06 -0 7.44948e-06)
(7.44943e-06 9.01776e-20 -0 7.44943e-06 -0 7.44943e-06)
(7.44937e-06 1.13748e-19 -0 7.44937e-06 -0 7.44937e-06)
(7.44935e-06 2.10655e-20 -0 7.44935e-06 -0 7.44935e-06)
(7.44934e-06 -4.41373e-20 -0 7.44934e-06 -0 7.44934e-06)
(7.51734e-06 2.90045e-18 -0 7.51734e-06 -0 7.51734e-06)
(7.51733e-06 -4.63807e-18 -0 7.51733e-06 -0 7.51733e-06)
(7.5167e-06 8.23653e-19 -0 7.5167e-06 -0 7.5167e-06)
(7.5164e-06 -2.23735e-19 -0 7.5164e-06 -0 7.5164e-06)
(7.51599e-06 5.74043e-20 -0 7.51599e-06 -0 7.51599e-06)
(7.51571e-06 3.53377e-21 -0 7.51571e-06 -0 7.51571e-06)
(7.51536e-06 -6.2347e-21 -0 7.51536e-06 -0 7.51536e-06)
(7.51512e-06 -1.8446e-20 -0 7.51512e-06 -0 7.51512e-06)
(7.51484e-06 -5.28876e-20 -0 7.51484e-06 -0 7.51484e-06)
(7.51463e-06 -6.52911e-20 -0 7.51463e-06 -0 7.51463e-06)
(7.51441e-06 -1.34332e-19 -0 7.51441e-06 -0 7.51441e-06)
(7.51424e-06 -1.18813e-19 -0 7.51424e-06 -0 7.51424e-06)
(7.51406e-06 4.29855e-21 -0 7.51406e-06 -0 7.51406e-06)
(7.51393e-06 4.94364e-21 -0 7.51393e-06 -0 7.51393e-06)
(7.51381e-06 -1.18476e-20 -0 7.51381e-06 -0 7.51381e-06)
(7.51372e-06 -3.81662e-21 -0 7.51372e-06 -0 7.51372e-06)
(7.51365e-06 1.07416e-19 -0 7.51365e-06 -0 7.51365e-06)
(7.5136e-06 -1.02305e-19 -0 7.5136e-06 -0 7.5136e-06)
(7.51357e-06 3.4671e-21 -0 7.51357e-06 -0 7.51357e-06)
(7.51356e-06 6.136e-20 -0 7.51356e-06 -0 7.51356e-06)
(7.5586e-06 6.30353e-18 -0 7.5586e-06 -0 7.5586e-06)
(7.55861e-06 -8.31353e-18 -0 7.55861e-06 -0 7.55861e-06)
(7.55787e-06 1.38605e-18 -0 7.55787e-06 -0 7.55787e-06)
(7.55766e-06 -3.94511e-19 -0 7.55766e-06 -0 7.55766e-06)
(7.55721e-06 -1.09321e-19 -0 7.55721e-06 -0 7.55721e-06)
(7.55694e-06 -2.26924e-19 -0 7.55694e-06 -0 7.55694e-06)
(7.55659e-06 -9.77936e-20 -0 7.55659e-06 -0 7.55659e-06)
(7.55633e-06 -1.81708e-19 -0 7.55633e-06 -0 7.55633e-06)
(7.55606e-06 -1.89447e-19 -0 7.55606e-06 -0 7.55606e-06)
(7.55582e-06 -3.30371e-20 -0 7.55582e-06 -0 7.55582e-06)
(7.55562e-06 5.88511e-20 -0 7.55562e-06 -0 7.55562e-06)
(7.55542e-06 1.20936e-19 -0 7.55542e-06 -0 7.55542e-06)
(7.55529e-06 7.10955e-21 -0 7.55529e-06 -0 7.55529e-06)
(7.55511e-06 -1.42584e-20 -0 7.55511e-06 -0 7.55511e-06)
(7.55503e-06 1.452e-20 -0 7.55503e-06 -0 7.55503e-06)
(7.5549e-06 1.90902e-20 -0 7.5549e-06 -0 7.5549e-06)
(7.55486e-06 -9.30511e-20 -0 7.55486e-06 -0 7.55486e-06)
(7.55479e-06 -1.50267e-20 -0 7.55479e-06 -0 7.55479e-06)
(7.55477e-06 -5.38571e-20 -0 7.55477e-06 -0 7.55477e-06)
(7.55476e-06 1.79522e-20 -0 7.55476e-06 -0 7.55476e-06)
(7.58865e-06 -8.36112e-18 -0 7.58865e-06 -0 7.58865e-06)
(7.58865e-06 1.26283e-17 -0 7.58865e-06 -0 7.58865e-06)
(7.58795e-06 -2.32037e-18 -0 7.58795e-06 -0 7.58795e-06)
(7.58769e-06 4.8284e-19 -0 7.58769e-06 -0 7.58769e-06)
(7.58724e-06 -1.4956e-19 -0 7.58724e-06 -0 7.58724e-06)
(7.58697e-06 1.51748e-20 -0 7.58697e-06 -0 7.58697e-06)
(7.58663e-06 -6.84914e-20 -0 7.58663e-06 -0 7.58663e-06)
(7.58639e-06 -2.53149e-21 -0 7.58639e-06 -0 7.58639e-06)
(7.58609e-06 -5.33847e-20 -0 7.58609e-06 -0 7.58609e-06)
(7.58588e-06 -1.08188e-20 -0 7.58588e-06 -0 7.58588e-06)
(7.58565e-06 2.42046e-20 -0 7.58565e-06 -0 7.58565e-06)
(7.58547e-06 -7.86499e-20 -0 7.58547e-06 -0 7.58547e-06)
(7.5853e-06 -9.70175e-20 -0 7.5853e-06 -0 7.5853e-06)
(7.58516e-06 -7.77687e-20 -0 7.58516e-06 -0 7.58516e-06)
(7.58504e-06 5.67442e-20 -0 7.58504e-06 -0 7.58504e-06)
(7.58495e-06 8.13387e-20 -0 7.58495e-06 -0 7.58495e-06)
(7.58488e-06 1.56733e-20 -0 7.58488e-06 -0 7.58488e-06)
(7.58483e-06 2.95981e-20 -0 7.58483e-06 -0 7.58483e-06)
(7.5848e-06 7.04676e-21 -0 7.5848e-06 -0 7.5848e-06)
(7.58479e-06 -1.01372e-20 -0 7.58479e-06 -0 7.58479e-06)
(7.61416e-06 7.70611e-18 -0 7.61416e-06 -0 7.61416e-06)
(7.61416e-06 -1.17056e-17 -0 7.61416e-06 -0 7.61416e-06)
(7.61345e-06 2.3926e-18 -0 7.61345e-06 -0 7.61345e-06)
(7.6132e-06 -3.25491e-19 -0 7.6132e-06 -0 7.6132e-06)
(7.61273e-06 1.86661e-19 -0 7.61273e-06 -0 7.61273e-06)
(7.61248e-06 9.27547e-20 -0 7.61248e-06 -0 7.61248e-06)
(7.61211e-06 1.13893e-19 -0 7.61211e-06 -0 7.61211e-06)
(7.61186e-06 2.56145e-19 -0 7.61186e-06 -0 7.61186e-06)
(7.61158e-06 2.45092e-19 -0 7.61158e-06 -0 7.61158e-06)
(7.61136e-06 1.45363e-19 -0 7.61136e-06 -0 7.61136e-06)
(7.61114e-06 8.23843e-20 -0 7.61114e-06 -0 7.61114e-06)
(7.61094e-06 -1.646e-20 -0 7.61094e-06 -0 7.61094e-06)
(7.61079e-06 2.81377e-20 -0 7.61079e-06 -0 7.61079e-06)
(7.61063e-06 1.07718e-19 -0 7.61063e-06 -0 7.61063e-06)
(7.61053e-06 -1.0377e-19 -0 7.61053e-06 -0 7.61053e-06)
(7.61041e-06 -6.59253e-20 -0 7.61041e-06 -0 7.61041e-06)
(7.61035e-06 -2.98027e-20 -0 7.61035e-06 -0 7.61035e-06)
(7.6103e-06 -2.23371e-22 -0 7.6103e-06 -0 7.6103e-06)
(7.61027e-06 4.24534e-20 -0 7.61027e-06 -0 7.61027e-06)
(7.61026e-06 -5.58134e-20 -0 7.61026e-06 -0 7.61026e-06)
(7.63872e-06 -4.13406e-18 -0 7.63872e-06 -0 7.63872e-06)
(7.63873e-06 6.56566e-18 -0 7.63873e-06 -0 7.63873e-06)
(7.63798e-06 -1.18626e-18 -0 7.63798e-06 -0 7.63798e-06)
(7.63776e-06 5.60666e-19 -0 7.63776e-06 -0 7.63776e-06)
(7.6373e-06 1.64954e-19 -0 7.6373e-06 -0 7.6373e-06)
(7.63702e-06 1.62807e-19 -0 7.63702e-06 -0 7.63702e-06)
(7.63669e-06 1.36936e-19 -0 7.63669e-06 -0 7.63669e-06)
(7.63639e-06 5.28579e-20 -0 7.63639e-06 -0 7.63639e-06)
(7.63616e-06 1.65905e-19 -0 7.63616e-06 -0 7.63616e-06)
(7.63588e-06 1.69582e-19 -0 7.63588e-06 -0 7.63588e-06)
(7.63572e-06 1.55863e-19 -0 7.63572e-06 -0 7.63572e-06)
(7.63546e-06 2.01892e-19 -0 7.63546e-06 -0 7.63546e-06)
(7.63536e-06 1.34692e-19 -0 7.63536e-06 -0 7.63536e-06)
(7.63515e-06 1.257e-19 -0 7.63515e-06 -0 7.63515e-06)
(7.63509e-06 1.656e-19 -0 7.63509e-06 -0 7.63509e-06)
(7.63495e-06 1.82185e-19 -0 7.63495e-06 -0 7.63495e-06)
(7.6349e-06 1.44781e-19 -0 7.6349e-06 -0 7.6349e-06)
(7.63484e-06 8.43877e-20 -0 7.63484e-06 -0 7.63484e-06)
(7.63482e-06 1.06093e-19 -0 7.63482e-06 -0 7.63482e-06)
(7.6348e-06 2.87801e-20 -0 7.6348e-06 -0 7.6348e-06)
(7.66443e-06 -1.27391e-18 -0 7.66443e-06 -0 7.66443e-06)
(7.66442e-06 2.45122e-18 -0 7.66442e-06 -0 7.66442e-06)
(7.66375e-06 -4.74639e-19 -0 7.66375e-06 -0 7.66375e-06)
(7.66345e-06 -1.05372e-19 -0 7.66345e-06 -0 7.66345e-06)
(7.66301e-06 -5.87494e-20 -0 7.66301e-06 -0 7.66301e-06)
(7.66273e-06 -3.35228e-20 -0 7.66273e-06 -0 7.66273e-06)
(7.66237e-06 -4.84121e-21 -0 7.66237e-06 -0 7.66237e-06)
(7.66212e-06 -1.17478e-19 -0 7.66212e-06 -0 7.66212e-06)
(7.66183e-06 -1.8682e-19 -0 7.66183e-06 -0 7.66183e-06)
(7.66161e-06 -2.14471e-19 -0 7.66161e-06 -0 7.66161e-06)
(7.66138e-06 -2.35433e-19 -0 7.66138e-06 -0 7.66138e-06)
(7.66119e-06 -1.08853e-19 -0 7.66119e-06 -0 7.66119e-06)
(7.66102e-06 -1.80191e-20 -0 7.66102e-06 -0 7.66102e-06)
(7.66088e-06 -1.27986e-19 -0 7.66088e-06 -0 7.66088e-06)
(7.66075e-06 -1.4545e-19 -0 7.66075e-06 -0 7.66075e-06)
(7.66066e-06 -1.71558e-19 -0 7.66066e-06 -0 7.66066e-06)
(7.66058e-06 -1.05662e-19 -0 7.66058e-06 -0 7.66058e-06)
(7.66054e-06 -1.40139e-19 -0 7.66054e-06 -0 7.66054e-06)
(7.66051e-06 -1.05903e-21 -0 7.66051e-06 -0 7.66051e-06)
(7.66049e-06 -3.16703e-20 -0 7.66049e-06 -0 7.66049e-06)
(7.69263e-06 7.33842e-18 -0 7.69263e-06 -0 7.69263e-06)
(7.69262e-06 -1.10807e-17 -0 7.69262e-06 -0 7.69262e-06)
(7.6919e-06 2.07839e-18 -0 7.6919e-06 -0 7.6919e-06)
(7.69165e-06 -6.35069e-19 -0 7.69165e-06 -0 7.69165e-06)
(7.69117e-06 -1.37299e-19 -0 7.69117e-06 -0 7.69117e-06)
(7.69091e-06 -1.5395e-19 -0 7.69091e-06 -0 7.69091e-06)
(7.69055e-06 -1.94349e-19 -0 7.69055e-06 -0 7.69055e-06)
(7.69028e-06 -7.26211e-20 -0 7.69028e-06 -0 7.69028e-06)
(7.69e-06 -4.96247e-20 -0 7.69e-06 -0 7.69e-06)
(7.68976e-06 -1.13075e-20 -0 7.68976e-06 -0 7.68976e-06)
(7.68955e-06 -7.73705e-20 -0 7.68955e-06 -0 7.68955e-06)
(7.68935e-06 -9.64159e-20 -0 7.68935e-06 -0 7.68935e-06)
(7.68919e-06 -8.5436e-20 -0 7.68919e-06 -0 7.68919e-06)
(7.68903e-06 -1.00436e-19 -0 7.68903e-06 -0 7.68903e-06)
(7.68892e-06 -1.24392e-19 -0 7.68892e-06 -0 7.68892e-06)
(7.68881e-06 -1.15649e-19 -0 7.68881e-06 -0 7.68881e-06)
(7.68874e-06 -7.64227e-20 -0 7.68874e-06 -0 7.68874e-06)
(7.68869e-06 -1.06951e-20 -0 7.68869e-06 -0 7.68869e-06)
(7.68866e-06 -1.4606e-19 -0 7.68866e-06 -0 7.68866e-06)
(7.68865e-06 -6.67908e-20 -0 7.68865e-06 -0 7.68865e-06)
(7.72415e-06 -1.19869e-17 -0 7.72415e-06 -0 7.72415e-06)
(7.72414e-06 1.47172e-17 -0 7.72414e-06 -0 7.72414e-06)
(7.72341e-06 -2.86416e-18 -0 7.72341e-06 -0 7.72341e-06)
(7.72315e-06 6.98098e-19 -0 7.72315e-06 -0 7.72315e-06)
(7.7227e-06 -5.74546e-20 -0 7.7227e-06 -0 7.7227e-06)
(7.7224e-06 5.48944e-20 -0 7.7224e-06 -0 7.7224e-06)
(7.72206e-06 2.25952e-21 -0 7.72206e-06 -0 7.72206e-06)
(7.72177e-06 -2.43616e-20 -0 7.72177e-06 -0 7.72177e-06)
(7.72152e-06 -2.8311e-20 -0 7.72152e-06 -0 7.72152e-06)
(7.72124e-06 -3.12776e-20 -0 7.72124e-06 -0 7.72124e-06)
(7.72107e-06 -4.41996e-21 -0 7.72107e-06 -0 7.72107e-06)
(7.72081e-06 -9.06174e-20 -0 7.72081e-06 -0 7.72081e-06)
(7.72071e-06 -9.42359e-20 -0 7.72071e-06 -0 7.72071e-06)
(7.7205e-06 -1.19523e-20 -0 7.7205e-06 -0 7.7205e-06)
(7.72043e-06 9.3549e-20 -0 7.72043e-06 -0 7.72043e-06)
(7.72029e-06 4.97022e-20 -0 7.72029e-06 -0 7.72029e-06)
(7.72024e-06 4.86232e-20 -0 7.72024e-06 -0 7.72024e-06)
(7.72017e-06 1.08768e-19 -0 7.72017e-06 -0 7.72017e-06)
(7.72015e-06 5.95547e-20 -0 7.72015e-06 -0 7.72015e-06)
(7.72014e-06 3.49554e-20 -0 7.72014e-06 -0 7.72014e-06)
(7.75926e-06 8.65683e-18 -0 7.75926e-06 -0 7.75926e-06)
(7.75926e-06 -1.04066e-17 -0 7.75926e-06 -0 7.75926e-06)
(7.75853e-06 1.91673e-18 -0 7.75853e-06 -0 7.75853e-06)
(7.75826e-06 -4.58966e-19 -0 7.75826e-06 -0 7.75826e-06)
(7.75777e-06 1.2172e-19 -0 7.75777e-06 -0 7.75777e-06)
(7.75752e-06 -2.66555e-20 -0 7.75752e-06 -0 7.75752e-06)
(7.75712e-06 1.02756e-20 -0 7.75712e-06 -0 7.75712e-06)
(7.75688e-06 1.596e-21 -0 7.75688e-06 -0 7.75688e-06)
(7.75658e-06 -6.76056e-20 -0 7.75658e-06 -0 7.75658e-06)
(7.75636e-06 -9.54114e-20 -0 7.75636e-06 -0 7.75636e-06)
(7.75611e-06 -5.40117e-21 -0 7.75611e-06 -0 7.75611e-06)
(7.75593e-06 -5.19291e-20 -0 7.75593e-06 -0 7.75593e-06)
(7.75574e-06 8.31222e-20 -0 7.75574e-06 -0 7.75574e-06)
(7.75561e-06 2.07104e-20 -0 7.75561e-06 -0 7.75561e-06)
(7.75547e-06 1.65633e-20 -0 7.75547e-06 -0 7.75547e-06)
(7.75538e-06 5.73409e-20 -0 7.75538e-06 -0 7.75538e-06)
(7.7553e-06 4.78709e-20 -0 7.7553e-06 -0 7.7553e-06)
(7.75525e-06 -6.49443e-20 -0 7.75525e-06 -0 7.75525e-06)
(7.75522e-06 2.81603e-21 -0 7.75522e-06 -0 7.75522e-06)
(7.75521e-06 2.98857e-21 -0 7.75521e-06 -0 7.75521e-06)
(7.79692e-06 5.12163e-18 -0 7.79692e-06 -0 7.79692e-06)
(7.79691e-06 -3.04916e-18 -0 7.79691e-06 -0 7.79691e-06)
(7.79624e-06 7.79221e-19 -0 7.79624e-06 -0 7.79624e-06)
(7.7959e-06 -1.81011e-19 -0 7.7959e-06 -0 7.7959e-06)
(7.79547e-06 3.51773e-20 -0 7.79547e-06 -0 7.79547e-06)
(7.79516e-06 -4.86843e-20 -0 7.79516e-06 -0 7.79516e-06)
(7.7948e-06 5.8247e-20 -0 7.7948e-06 -0 7.7948e-06)
(7.79453e-06 5.39218e-20 -0 7.79453e-06 -0 7.79453e-06)
(7.79424e-06 9.70796e-20 -0 7.79424e-06 -0 7.79424e-06)
(7.794e-06 1.81192e-20 -0 7.794e-06 -0 7.794e-06)
(7.79377e-06 8.88721e-20 -0 7.79377e-06 -0 7.79377e-06)
(7.79358e-06 6.20609e-20 -0 7.79358e-06 -0 7.79358e-06)
(7.7934e-06 -1.7439e-21 -0 7.7934e-06 -0 7.7934e-06)
(7.79325e-06 1.27957e-20 -0 7.79325e-06 -0 7.79325e-06)
(7.79312e-06 -3.37192e-21 -0 7.79312e-06 -0 7.79312e-06)
(7.79302e-06 7.17502e-21 -0 7.79302e-06 -0 7.79302e-06)
(7.79294e-06 5.6242e-21 -0 7.79294e-06 -0 7.79294e-06)
(7.7929e-06 4.92568e-20 -0 7.7929e-06 -0 7.7929e-06)
(7.79286e-06 1.13012e-20 -0 7.79286e-06 -0 7.79286e-06)
(7.79285e-06 -2.63392e-21 -0 7.79285e-06 -0 7.79285e-06)
(7.83398e-06 -1.81658e-17 -0 7.83398e-06 -0 7.83398e-06)
(7.83398e-06 1.70838e-17 -0 7.83398e-06 -0 7.83398e-06)
(7.83322e-06 -3.17073e-18 -0 7.83322e-06 -0 7.83322e-06)
(7.83297e-06 9.61395e-19 -0 7.83297e-06 -0 7.83297e-06)
(7.83248e-06 6.59195e-20 -0 7.83248e-06 -0 7.83248e-06)
(7.83222e-06 2.23989e-19 -0 7.83222e-06 -0 7.83222e-06)
(7.83181e-06 9.49307e-20 -0 7.83181e-06 -0 7.83181e-06)
(7.83157e-06 1.34871e-19 -0 7.83157e-06 -0 7.83157e-06)
(7.83125e-06 1.48864e-19 -0 7.83125e-06 -0 7.83125e-06)
(7.83102e-06 9.29163e-20 -0 7.83102e-06 -0 7.83102e-06)
(7.83079e-06 -2.3707e-20 -0 7.83079e-06 -0 7.83079e-06)
(7.83058e-06 9.86003e-20 -0 7.83058e-06 -0 7.83058e-06)
(7.83042e-06 1.00362e-19 -0 7.83042e-06 -0 7.83042e-06)
(7.83025e-06 -3.18064e-21 -0 7.83025e-06 -0 7.83025e-06)
(7.83014e-06 2.39374e-20 -0 7.83014e-06 -0 7.83014e-06)
(7.83002e-06 -1.85506e-20 -0 7.83002e-06 -0 7.83002e-06)
(7.82996e-06 -2.3093e-21 -0 7.82996e-06 -0 7.82996e-06)
(7.8299e-06 8.25838e-20 -0 7.8299e-06 -0 7.8299e-06)
(7.82988e-06 -6.71202e-21 -0 7.82988e-06 -0 7.82988e-06)
(7.82986e-06 6.26425e-21 -0 7.82986e-06 -0 7.82986e-06)
(7.8646e-06 5.15147e-18 -0 7.8646e-06 -0 7.8646e-06)
(7.86461e-06 -6.97844e-18 -0 7.86461e-06 -0 7.86461e-06)
(7.86389e-06 7.28616e-19 -0 7.86389e-06 -0 7.86389e-06)
(7.86363e-06 -5.15449e-19 -0 7.86363e-06 -0 7.86363e-06)
(7.86317e-06 -1.9196e-19 -0 7.86317e-06 -0 7.86317e-06)
(7.86288e-06 -2.37255e-19 -0 7.86288e-06 -0 7.86288e-06)
(7.86252e-06 -1.9261e-19 -0 7.86252e-06 -0 7.86252e-06)
(7.86224e-06 -2.83931e-19 -0 7.86224e-06 -0 7.86224e-06)
(7.86197e-06 -2.47487e-19 -0 7.86197e-06 -0 7.86197e-06)
(7.86171e-06 -1.01912e-19 -0 7.86171e-06 -0 7.86171e-06)
(7.86151e-06 -7.63124e-20 -0 7.86151e-06 -0 7.86151e-06)
(7.86127e-06 -7.10113e-20 -0 7.86127e-06 -0 7.86127e-06)
(7.86114e-06 -8.61646e-20 -0 7.86114e-06 -0 7.86114e-06)
(7.86095e-06 -9.55602e-21 -0 7.86095e-06 -0 7.86095e-06)
(7.86087e-06 5.23378e-21 -0 7.86087e-06 -0 7.86087e-06)
(7.86073e-06 -4.49037e-20 -0 7.86073e-06 -0 7.86073e-06)
(7.86068e-06 -5.67366e-21 -0 7.86068e-06 -0 7.86068e-06)
(7.86061e-06 -1.09473e-19 -0 7.86061e-06 -0 7.86061e-06)
(7.86059e-06 -6.2905e-20 -0 7.86059e-06 -0 7.86059e-06)
(7.86057e-06 -5.52354e-20 -0 7.86057e-06 -0 7.86057e-06)
(7.87834e-06 1.50002e-17 -0 7.87834e-06 -0 7.87834e-06)
(7.87832e-06 -1.53134e-17 -0 7.87832e-06 -0 7.87832e-06)
(7.87831e-06 3.55402e-18 -0 7.87831e-06 -0 7.87831e-06)
(7.87831e-06 -6.39487e-19 -0 7.87831e-06 -0 7.87831e-06)
(7.8783e-06 2.69443e-19 -0 7.8783e-06 -0 7.8783e-06)
(7.87829e-06 1.25531e-19 -0 7.87829e-06 -0 7.87829e-06)
(7.87829e-06 1.09266e-19 -0 7.87829e-06 -0 7.87829e-06)
(7.87828e-06 9.33825e-20 -0 7.87828e-06 -0 7.87828e-06)
(7.87828e-06 4.56286e-20 -0 7.87828e-06 -0 7.87828e-06)
(7.87828e-06 3.66064e-20 -0 7.87828e-06 -0 7.87828e-06)
(7.87828e-06 4.60297e-20 -0 7.87828e-06 -0 7.87828e-06)
(7.87827e-06 2.42014e-20 -0 7.87827e-06 -0 7.87827e-06)
(7.87827e-06 2.53714e-20 -0 7.87827e-06 -0 7.87827e-06)
(7.87827e-06 -6.86343e-22 -0 7.87827e-06 -0 7.87827e-06)
(7.87827e-06 -1.08729e-20 -0 7.87827e-06 -0 7.87827e-06)
(7.87827e-06 8.93302e-20 -0 7.87827e-06 -0 7.87827e-06)
(7.87827e-06 -1.2281e-20 -0 7.87827e-06 -0 7.87827e-06)
(7.87827e-06 4.67e-21 -0 7.87827e-06 -0 7.87827e-06)
(7.87827e-06 5.32075e-20 -0 7.87827e-06 -0 7.87827e-06)
(7.87827e-06 4.23972e-20 -0 7.87827e-06 -0 7.87827e-06)
)
;

boundaryField
{
    movingWall
    {
        type            kqRWallFunction;
        value           nonuniform List<symmTensor> 
20
(
(7.87834e-06 0 -0 7.87834e-06 -0 7.87834e-06)
(7.87832e-06 -0 -0 7.87832e-06 -0 7.87832e-06)
(7.87831e-06 0 -0 7.87831e-06 -0 7.87831e-06)
(7.87831e-06 0 -0 7.87831e-06 -0 7.87831e-06)
(7.8783e-06 0 -0 7.8783e-06 -0 7.8783e-06)
(7.87829e-06 0 -0 7.87829e-06 -0 7.87829e-06)
(7.87829e-06 0 -0 7.87829e-06 -0 7.87829e-06)
(7.87828e-06 0 -0 7.87828e-06 -0 7.87828e-06)
(7.87828e-06 0 -0 7.87828e-06 -0 7.87828e-06)
(7.87828e-06 0 -0 7.87828e-06 -0 7.87828e-06)
(7.87828e-06 0 -0 7.87828e-06 -0 7.87828e-06)
(7.87827e-06 0 -0 7.87827e-06 -0 7.87827e-06)
(7.87827e-06 0 -0 7.87827e-06 -0 7.87827e-06)
(7.87827e-06 0 -0 7.87827e-06 -0 7.87827e-06)
(7.87827e-06 0 -0 7.87827e-06 -0 7.87827e-06)
(7.87827e-06 0 -0 7.87827e-06 -0 7.87827e-06)
(7.87827e-06 -0 -0 7.87827e-06 -0 7.87827e-06)
(7.87827e-06 0 -0 7.87827e-06 -0 7.87827e-06)
(7.87827e-06 0 -0 7.87827e-06 -0 7.87827e-06)
(7.87827e-06 0 -0 7.87827e-06 -0 7.87827e-06)
)
;
    }
    fixedWalls
    {
        type            kqRWallFunction;
        value           nonuniform List<symmTensor> 
60
(
(5.7984e-06 -0 -0 5.7984e-06 -0 5.7984e-06)
(6.09288e-06 -0 -0 6.09288e-06 -0 6.09288e-06)
(6.51029e-06 0 -0 6.51029e-06 -0 6.51029e-06)
(6.89096e-06 -0 -0 6.89096e-06 -0 6.89096e-06)
(7.16826e-06 -0 -0 7.16826e-06 -0 7.16826e-06)
(7.34604e-06 0 -0 7.34604e-06 -0 7.34604e-06)
(7.45306e-06 -0 -0 7.45306e-06 -0 7.45306e-06)
(7.51734e-06 0 -0 7.51734e-06 -0 7.51734e-06)
(7.5586e-06 0 -0 7.5586e-06 -0 7.5586e-06)
(7.58865e-06 -0 -0 7.58865e-06 -0 7.58865e-06)
(7.61416e-06 0 -0 7.61416e-06 -0 7.61416e-06)
(7.63872e-06 -0 -0 7.63872e-06 -0 7.63872e-06)
(7.66443e-06 -0 -0 7.66443e-06 -0 7.66443e-06)
(7.69263e-06 0 -0 7.69263e-06 -0 7.69263e-06)
(7.72415e-06 -0 -0 7.72415e-06 -0 7.72415e-06)
(7.75926e-06 0 -0 7.75926e-06 -0 7.75926e-06)
(7.79692e-06 0 -0 7.79692e-06 -0 7.79692e-06)
(7.83398e-06 -0 -0 7.83398e-06 -0 7.83398e-06)
(7.8646e-06 0 -0 7.8646e-06 -0 7.8646e-06)
(7.87834e-06 0 -0 7.87834e-06 -0 7.87834e-06)
(5.79835e-06 -0 -0 5.79835e-06 -0 5.79835e-06)
(6.09045e-06 -0 -0 6.09045e-06 -0 6.09045e-06)
(6.50746e-06 -0 -0 6.50746e-06 -0 6.50746e-06)
(6.8878e-06 -0 -0 6.8878e-06 -0 6.8878e-06)
(7.16483e-06 0 -0 7.16483e-06 -0 7.16483e-06)
(7.34243e-06 0 -0 7.34243e-06 -0 7.34243e-06)
(7.44934e-06 -0 -0 7.44934e-06 -0 7.44934e-06)
(7.51356e-06 0 -0 7.51356e-06 -0 7.51356e-06)
(7.55476e-06 0 -0 7.55476e-06 -0 7.55476e-06)
(7.58479e-06 -0 -0 7.58479e-06 -0 7.58479e-06)
(7.61026e-06 -0 -0 7.61026e-06 -0 7.61026e-06)
(7.6348e-06 0 -0 7.6348e-06 -0 7.6348e-06)
(7.66049e-06 -0 -0 7.66049e-06 -0 7.66049e-06)
(7.68865e-06 -0 -0 7.68865e-06 -0 7.68865e-06)
(7.72014e-06 0 -0 7.72014e-06 -0 7.72014e-06)
(7.75521e-06 -0 -0 7.75521e-06 -0 7.75521e-06)
(7.79285e-06 -0 -0 7.79285e-06 -0 7.79285e-06)
(7.82986e-06 0 -0 7.82986e-06 -0 7.82986e-06)
(7.86057e-06 -0 -0 7.86057e-06 -0 7.86057e-06)
(7.87827e-06 0 -0 7.87827e-06 -0 7.87827e-06)
(5.7984e-06 -0 -0 5.7984e-06 -0 5.7984e-06)
(5.79839e-06 0 -0 5.79839e-06 -0 5.79839e-06)
(5.79839e-06 -0 -0 5.79839e-06 -0 5.79839e-06)
(5.79838e-06 0 -0 5.79838e-06 -0 5.79838e-06)
(5.79838e-06 -0 -0 5.79838e-06 -0 5.79838e-06)
(5.79837e-06 -0 -0 5.79837e-06 -0 5.79837e-06)
(5.79837e-06 -0 -0 5.79837e-06 -0 5.79837e-06)
(5.79837e-06 -0 -0 5.79837e-06 -0 5.79837e-06)
(5.79836e-06 0 -0 5.79836e-06 -0 5.79836e-06)
(5.79836e-06 0 -0 5.79836e-06 -0 5.79836e-06)
(5.79836e-06 0 -0 5.79836e-06 -0 5.79836e-06)
(5.79836e-06 0 -0 5.79836e-06 -0 5.79836e-06)
(5.79836e-06 0 -0 5.79836e-06 -0 5.79836e-06)
(5.79836e-06 0 -0 5.79836e-06 -0 5.79836e-06)
(5.79835e-06 -0 -0 5.79835e-06 -0 5.79835e-06)
(5.79835e-06 0 -0 5.79835e-06 -0 5.79835e-06)
(5.79835e-06 0 -0 5.79835e-06 -0 5.79835e-06)
(5.79835e-06 -0 -0 5.79835e-06 -0 5.79835e-06)
(5.79835e-06 -0 -0 5.79835e-06 -0 5.79835e-06)
(5.79835e-06 0 -0 5.79835e-06 -0 5.79835e-06)
)
;
    }
    frontAndBack
    {
        type            empty;
    }
}


// ************************************************************************* //
