/*--------------------------------*- C++ -*----------------------------------*\
| =========                 |                                                 |
| \\      /  F ield         | OpenFOAM: The Open Source CFD Toolbox           |
|  \\    /   O peration     | Version:  2506                                  |
|   \\  /    A nd           | Website:  www.openfoam.com                      |
|    \\/     M anipulation  |                                                 |
\*---------------------------------------------------------------------------*/
FoamFile
{
    version     2.0;
    format      ascii;
    arch        "LSB;label=32;scalar=64";
    class       volScalarField;
    location    "6";
    object      turbulenceProperties:L;
}
// * * * * * * * * * * * * * * * * * * * * * * * * * * * * * * * * * * * * * //

dimensions      [0 1 0 0 0 0 0];

internalField   nonuniform List<scalar> 
400
(
0.00102155
0.00102155
0.00102155
0.00102155
0.00102155
0.00102155
0.00102155
0.00102155
0.00102155
0.00102155
0.00102155
0.00102155
0.00102155
0.00102155
0.00102155
0.00102155
0.00102155
0.00102155
0.00102155
0.00102155
0.00102136
0.00104002
0.00103835
0.00103765
0.00103629
0.00103557
0.00103423
0.00103349
0.00103216
0.00103141
0.00103009
0.00102932
0.00102801
0.00102724
0.00102593
0.00102515
0.00102384
0.00102306
0.0010224
0.00102136
0.00102114
0.00104074
0.00103895
0.00103821
0.00103677
0.001036
0.00103458
0.00103379
0.0010324
0.0010316
0.00103022
0.00102941
0.00102805
0.00102724
0.00102587
0.00102507
0.0010237
0.0010229
0.00102221
0.00102114
0.00102099
0.0010412
0.00103936
0.0010386
0.0010371
0.00103631
0.00103485
0.00103404
0.0010326
0.00103178
0.00103035
0.00102953
0.00102811
0.00102728
0.00102587
0.00102505
0.00102363
0.00102281
0.0010221
0.00102099
0.00102092
0.00104158
0.0010397
0.00103892
0.00103739
0.00103658
0.00103508
0.00103426
0.00103278
0.00103195
0.00103048
0.00102964
0.00102819
0.00102735
0.0010259
0.00102506
0.00102361
0.00102278
0.00102205
0.00102092
0.00102088
0.00104184
0.00103993
0.00103913
0.00103758
0.00103676
0.00103525
0.00103441
0.00103292
0.00103207
0.00103058
0.00102973
0.00102826
0.0010274
0.00102594
0.00102508
0.00102362
0.00102277
0.00102203
0.00102088
0.00102087
0.001042
0.00104006
0.00103927
0.00103771
0.00103688
0.00103535
0.0010345
0.001033
0.00103214
0.00103065
0.00102978
0.00102831
0.00102744
0.00102597
0.0010251
0.00102363
0.00102277
0.00102203
0.00102087
0.00102086
0.00104208
0.00104016
0.00103934
0.00103778
0.00103695
0.00103541
0.00103456
0.00103305
0.00103219
0.00103069
0.00102982
0.00102833
0.00102746
0.00102598
0.00102511
0.00102363
0.00102277
0.00102203
0.00102086
0.00102086
0.00104215
0.0010402
0.0010394
0.00103783
0.00103699
0.00103545
0.0010346
0.00103308
0.00103221
0.00103071
0.00102984
0.00102835
0.00102747
0.00102599
0.00102512
0.00102363
0.00102277
0.00102202
0.00102085
0.00102085
0.00104219
0.00104024
0.00103943
0.00103785
0.00103702
0.00103548
0.00103462
0.0010331
0.00103224
0.00103073
0.00102986
0.00102836
0.00102749
0.00102599
0.00102513
0.00102363
0.00102277
0.00102202
0.00102085
0.00102084
0.00104222
0.00104027
0.00103946
0.00103788
0.00103705
0.0010355
0.00103464
0.00103312
0.00103225
0.00103074
0.00102987
0.00102837
0.00102749
0.001026
0.00102513
0.00102363
0.00102277
0.00102202
0.00102084
0.00102084
0.00104225
0.00104029
0.00103949
0.0010379
0.00103706
0.00103552
0.00103465
0.00103314
0.00103226
0.00103076
0.00102987
0.00102838
0.00102749
0.00102601
0.00102512
0.00102364
0.00102276
0.00102201
0.00102084
0.00102083
0.00104228
0.00104033
0.00103951
0.00103793
0.00103709
0.00103554
0.00103468
0.00103315
0.00103228
0.00103076
0.00102989
0.00102838
0.0010275
0.001026
0.00102513
0.00102363
0.00102276
0.00102201
0.00102083
0.00102082
0.00104231
0.00104035
0.00103954
0.00103795
0.00103711
0.00103556
0.00103469
0.00103316
0.00103229
0.00103077
0.00102989
0.00102839
0.00102751
0.00102601
0.00102513
0.00102363
0.00102276
0.001022
0.00102082
0.00102082
0.00104235
0.00104038
0.00103957
0.00103798
0.00103713
0.00103558
0.00103471
0.00103319
0.0010323
0.00103079
0.0010299
0.0010284
0.00102751
0.00102601
0.00102513
0.00102363
0.00102275
0.001022
0.00102082
0.00102081
0.00104239
0.00104042
0.0010396
0.00103801
0.00103717
0.0010356
0.00103474
0.0010332
0.00103232
0.0010308
0.00102992
0.0010284
0.00102752
0.00102601
0.00102513
0.00102362
0.00102275
0.00102199
0.00102081
0.00102079
0.00104243
0.00104047
0.00103963
0.00103804
0.00103719
0.00103563
0.00103476
0.00103322
0.00103234
0.00103081
0.00102993
0.00102841
0.00102752
0.00102601
0.00102513
0.00102362
0.00102274
0.00102198
0.00102079
0.00102078
0.00104246
0.00104048
0.00103967
0.00103806
0.00103722
0.00103564
0.00103478
0.00103323
0.00103235
0.00103082
0.00102993
0.00102842
0.00102752
0.00102601
0.00102512
0.00102361
0.00102273
0.00102197
0.00102078
0.00102077
0.00104205
0.00104015
0.00103935
0.00103781
0.00103697
0.00103546
0.0010346
0.0010331
0.00103222
0.00103074
0.00102985
0.00102837
0.00102747
0.00102599
0.00102509
0.00102361
0.00102271
0.00102196
0.00102077
0.00102076
0.00102076
0.00102076
0.00102076
0.00102076
0.00102076
0.00102076
0.00102076
0.00102076
0.00102076
0.00102076
0.00102076
0.00102076
0.00102076
0.00102076
0.00102076
0.00102076
0.00102076
0.00102076
0.00102076
)
;

boundaryField
{
    movingWall
    {
        type            calculated;
        value           nonuniform List<scalar> 
20
(
0.00102076
0.00102076
0.00102076
0.00102076
0.00102076
0.00102076
0.00102076
0.00102076
0.00102076
0.00102076
0.00102076
0.00102076
0.00102076
0.00102076
0.00102076
0.00102076
0.00102076
0.00102076
0.00102076
0.00102076
)
;
    }
    fixedWalls
    {
        type            calculated;
        value           nonuniform List<scalar> 
60
(
0.00102155
0.00102136
0.00102114
0.00102099
0.00102092
0.00102088
0.00102087
0.00102086
0.00102086
0.00102085
0.00102084
0.00102084
0.00102083
0.00102082
0.00102082
0.00102081
0.00102079
0.00102078
0.00102077
0.00102076
0.00102155
0.00102136
0.00102114
0.00102099
0.00102092
0.00102088
0.00102087
0.00102086
0.00102085
0.00102085
0.00102084
0.00102084
0.00102083
0.00102082
0.00102082
0.00102081
0.00102079
0.00102078
0.00102077
0.00102076
0.00102155
0.00102155
0.00102155
0.00102155
0.00102155
0.00102155
0.00102155
0.00102155
0.00102155
0.00102155
0.00102155
0.00102155
0.00102155
0.00102155
0.00102155
0.00102155
0.00102155
0.00102155
0.00102155
0.00102155
)
;
    }
    frontAndBack
    {
        type            empty;
    }
}


// ************************************************************************* //
