/*--------------------------------*- C++ -*----------------------------------*\
| =========                 |                                                 |
| \\      /  F ield         | OpenFOAM: The Open Source CFD Toolbox           |
|  \\    /   O peration     | Version:  2506                                  |
|   \\  /    A nd           | Website:  www.openfoam.com                      |
|    \\/     M anipulation  |                                                 |
\*---------------------------------------------------------------------------*/
FoamFile
{
    version     2.0;
    format      ascii;
    arch        "LSB;label=32;scalar=64";
    class       volScalarField;
    location    "6";
    object      turbulenceProperties:k;
}
// * * * * * * * * * * * * * * * * * * * * * * * * * * * * * * * * * * * * * //

dimensions      [0 2 -2 0 0 0 0];

internalField   nonuniform List<scalar> 
400
(
8.6976e-06
8.69759e-06
8.69758e-06
8.69757e-06
8.69757e-06
8.69756e-06
8.69755e-06
8.69755e-06
8.69754e-06
8.69754e-06
8.69754e-06
8.69754e-06
8.69753e-06
8.69753e-06
8.69753e-06
8.69753e-06
8.69753e-06
8.69753e-06
8.69753e-06
8.69753e-06
9.13932e-06
9.13934e-06
9.13866e-06
9.13842e-06
9.13802e-06
9.13777e-06
9.13743e-06
9.13721e-06
9.13692e-06
9.13673e-06
9.13651e-06
9.13634e-06
9.13617e-06
9.13604e-06
9.13592e-06
9.13584e-06
9.13576e-06
9.13572e-06
9.13569e-06
9.13568e-06
9.76543e-06
9.76543e-06
9.76466e-06
9.76439e-06
9.7639e-06
9.7636e-06
9.76323e-06
9.76292e-06
9.76266e-06
9.76236e-06
9.76218e-06
9.76192e-06
9.7618e-06
9.76158e-06
9.7615e-06
9.76135e-06
9.76131e-06
9.76123e-06
9.76121e-06
9.7612e-06
1.03364e-05
1.03364e-05
1.03356e-05
1.03353e-05
1.03347e-05
1.03344e-05
1.03339e-05
1.03337e-05
1.03333e-05
1.0333e-05
1.03328e-05
1.03325e-05
1.03323e-05
1.03322e-05
1.0332e-05
1.03319e-05
1.03318e-05
1.03318e-05
1.03317e-05
1.03317e-05
1.07524e-05
1.07524e-05
1.07515e-05
1.07511e-05
1.07505e-05
1.07502e-05
1.07497e-05
1.07494e-05
1.0749e-05
1.07487e-05
1.07484e-05
1.07482e-05
1.07479e-05
1.07478e-05
1.07476e-05
1.07475e-05
1.07474e-05
1.07473e-05
1.07473e-05
1.07473e-05
1.10191e-05
1.10191e-05
1.10181e-05
1.10177e-05
1.10171e-05
1.10167e-05
1.10162e-05
1.10159e-05
1.10155e-05
1.10152e-05
1.10149e-05
1.10146e-05
1.10144e-05
1.10142e-05
1.1014e-05
1.10139e-05
1.10138e-05
1.10137e-05
1.10137e-05
1.10136e-05
1.11796e-05
1.11796e-05
1.11785e-05
1.11782e-05
1.11776e-05
1.11772e-05
1.11767e-05
1.11763e-05
1.11759e-05
1.11755e-05
1.11753e-05
1.1175e-05
1.11748e-05
1.11745e-05
1.11744e-05
1.11742e-05
1.11741e-05
1.11741e-05
1.1174e-05
1.1174e-05
1.1276e-05
1.1276e-05
1.1275e-05
1.12746e-05
1.1274e-05
1.12736e-05
1.1273e-05
1.12727e-05
1.12723e-05
1.12719e-05
1.12716e-05
1.12714e-05
1.12711e-05
1.12709e-05
1.12707e-05
1.12706e-05
1.12705e-05
1.12704e-05
1.12704e-05
1.12703e-05
1.13379e-05
1.13379e-05
1.13368e-05
1.13365e-05
1.13358e-05
1.13354e-05
1.13349e-05
1.13345e-05
1.13341e-05
1.13337e-05
1.13334e-05
1.13331e-05
1.13329e-05
1.13327e-05
1.13325e-05
1.13324e-05
1.13323e-05
1.13322e-05
1.13322e-05
1.13321e-05
1.1383e-05
1.1383e-05
1.13819e-05
1.13815e-05
1.13809e-05
1.13805e-05
1.13799e-05
1.13796e-05
1.13791e-05
1.13788e-05
1.13785e-05
1.13782e-05
1.1378e-05
1.13777e-05
1.13776e-05
1.13774e-05
1.13773e-05
1.13772e-05
1.13772e-05
1.13772e-05
1.14212e-05
1.14212e-05
1.14202e-05
1.14198e-05
1.14191e-05
1.14187e-05
1.14182e-05
1.14178e-05
1.14174e-05
1.1417e-05
1.14167e-05
1.14164e-05
1.14162e-05
1.14159e-05
1.14158e-05
1.14156e-05
1.14155e-05
1.14154e-05
1.14154e-05
1.14154e-05
1.14581e-05
1.14581e-05
1.1457e-05
1.14566e-05
1.1456e-05
1.14555e-05
1.1455e-05
1.14546e-05
1.14542e-05
1.14538e-05
1.14536e-05
1.14532e-05
1.1453e-05
1.14527e-05
1.14526e-05
1.14524e-05
1.14524e-05
1.14523e-05
1.14522e-05
1.14522e-05
1.14966e-05
1.14966e-05
1.14956e-05
1.14952e-05
1.14945e-05
1.14941e-05
1.14936e-05
1.14932e-05
1.14927e-05
1.14924e-05
1.14921e-05
1.14918e-05
1.14915e-05
1.14913e-05
1.14911e-05
1.1491e-05
1.14909e-05
1.14908e-05
1.14908e-05
1.14907e-05
1.15389e-05
1.15389e-05
1.15379e-05
1.15375e-05
1.15368e-05
1.15364e-05
1.15358e-05
1.15354e-05
1.1535e-05
1.15346e-05
1.15343e-05
1.1534e-05
1.15338e-05
1.15335e-05
1.15334e-05
1.15332e-05
1.15331e-05
1.1533e-05
1.1533e-05
1.1533e-05
1.15862e-05
1.15862e-05
1.15851e-05
1.15847e-05
1.1584e-05
1.15836e-05
1.15831e-05
1.15827e-05
1.15823e-05
1.15819e-05
1.15816e-05
1.15812e-05
1.15811e-05
1.15807e-05
1.15806e-05
1.15804e-05
1.15804e-05
1.15803e-05
1.15802e-05
1.15802e-05
1.16389e-05
1.16389e-05
1.16378e-05
1.16374e-05
1.16367e-05
1.16363e-05
1.16357e-05
1.16353e-05
1.16349e-05
1.16345e-05
1.16342e-05
1.16339e-05
1.16336e-05
1.16334e-05
1.16332e-05
1.16331e-05
1.1633e-05
1.16329e-05
1.16328e-05
1.16328e-05
1.16954e-05
1.16954e-05
1.16944e-05
1.16939e-05
1.16932e-05
1.16927e-05
1.16922e-05
1.16918e-05
1.16914e-05
1.1691e-05
1.16907e-05
1.16904e-05
1.16901e-05
1.16899e-05
1.16897e-05
1.16895e-05
1.16894e-05
1.16893e-05
1.16893e-05
1.16893e-05
1.1751e-05
1.1751e-05
1.17498e-05
1.17495e-05
1.17487e-05
1.17483e-05
1.17477e-05
1.17474e-05
1.17469e-05
1.17465e-05
1.17462e-05
1.17459e-05
1.17456e-05
1.17454e-05
1.17452e-05
1.1745e-05
1.17449e-05
1.17449e-05
1.17448e-05
1.17448e-05
1.17969e-05
1.17969e-05
1.17958e-05
1.17954e-05
1.17948e-05
1.17943e-05
1.17938e-05
1.17934e-05
1.1793e-05
1.17926e-05
1.17923e-05
1.17919e-05
1.17917e-05
1.17914e-05
1.17913e-05
1.17911e-05
1.1791e-05
1.17909e-05
1.17909e-05
1.17909e-05
1.18175e-05
1.18175e-05
1.18175e-05
1.18175e-05
1.18175e-05
1.18174e-05
1.18174e-05
1.18174e-05
1.18174e-05
1.18174e-05
1.18174e-05
1.18174e-05
1.18174e-05
1.18174e-05
1.18174e-05
1.18174e-05
1.18174e-05
1.18174e-05
1.18174e-05
1.18174e-05
)
;

boundaryField
{
    movingWall
    {
        type            kqRWallFunction;
        value           nonuniform List<scalar> 
20
(
1.18175e-05
1.18175e-05
1.18175e-05
1.18175e-05
1.18175e-05
1.18174e-05
1.18174e-05
1.18174e-05
1.18174e-05
1.18174e-05
1.18174e-05
1.18174e-05
1.18174e-05
1.18174e-05
1.18174e-05
1.18174e-05
1.18174e-05
1.18174e-05
1.18174e-05
1.18174e-05
)
;
    }
    fixedWalls
    {
        type            kqRWallFunction;
        value           nonuniform List<scalar> 
60
(
8.6976e-06
9.13932e-06
9.76543e-06
1.03364e-05
1.07524e-05
1.10191e-05
1.11796e-05
1.1276e-05
1.13379e-05
1.1383e-05
1.14212e-05
1.14581e-05
1.14966e-05
1.15389e-05
1.15862e-05
1.16389e-05
1.16954e-05
1.1751e-05
1.17969e-05
1.18175e-05
8.69753e-06
9.13568e-06
9.7612e-06
1.03317e-05
1.07473e-05
1.10136e-05
1.1174e-05
1.12703e-05
1.13321e-05
1.13772e-05
1.14154e-05
1.14522e-05
1.14907e-05
1.1533e-05
1.15802e-05
1.16328e-05
1.16893e-05
1.17448e-05
1.17909e-05
1.18174e-05
8.6976e-06
8.69759e-06
8.69758e-06
8.69757e-06
8.69757e-06
8.69756e-06
8.69755e-06
8.69755e-06
8.69754e-06
8.69754e-06
8.69754e-06
8.69754e-06
8.69753e-06
8.69753e-06
8.69753e-06
8.69753e-06
8.69753e-06
8.69753e-06
8.69753e-06
8.69753e-06
)
;
    }
    frontAndBack
    {
        type            empty;
    }
}


// ************************************************************************* //
