/*--------------------------------*- C++ -*----------------------------------*\
| =========                 |                                                 |
| \\      /  F ield         | OpenFOAM: The Open Source CFD Toolbox           |
|  \\    /   O peration     | Version:  2506                                  |
|   \\  /    A nd           | Website:  www.openfoam.com                      |
|    \\/     M anipulation  |                                                 |
\*---------------------------------------------------------------------------*/
FoamFile
{
    version     2.0;
    format      ascii;
    arch        "LSB;label=32;scalar=64";
    class       volScalarField;
    location    "6";
    object      turbulenceProperties:omega;
}
// * * * * * * * * * * * * * * * * * * * * * * * * * * * * * * * * * * * * * //

dimensions      [0 0 -1 0 0 0 0];

internalField   nonuniform List<scalar> 
400
(
5.27083
5.27082
5.27082
5.27082
5.27081
5.27082
5.27081
5.27081
5.27081
5.27081
5.2708
5.27081
5.2708
5.27081
5.2708
5.27081
5.2708
5.2708
5.2708
5.2708
5.40405
5.30705
5.31542
5.31891
5.32577
5.32941
5.33622
5.33997
5.34676
5.35062
5.3574
5.36134
5.36813
5.37214
5.37897
5.38302
5.38989
5.39398
5.39746
5.40297
5.58729
5.48205
5.49126
5.4951
5.50263
5.50662
5.51405
5.51817
5.52554
5.52975
5.53709
5.54136
5.54871
5.55301
5.56039
5.5647
5.57213
5.57644
5.58019
5.58607
5.74914
5.63755
5.6473
5.65138
5.65937
5.66358
5.67149
5.67582
5.68366
5.68809
5.69591
5.70039
5.70822
5.71275
5.7206
5.72514
5.73303
5.73759
5.74158
5.74781
5.86411
5.74776
5.75792
5.76217
5.77051
5.77488
5.78313
5.78764
5.79582
5.80043
5.80858
5.81326
5.82141
5.82614
5.83432
5.83906
5.84728
5.85204
5.85619
5.86269
5.93658
5.81717
5.8276
5.83196
5.84049
5.84502
5.85344
5.85809
5.86646
5.87121
5.87957
5.88438
5.89274
5.89759
5.90598
5.91085
5.91929
5.92417
5.92843
5.93511
5.97974
5.8585
5.86911
5.87352
5.88218
5.88677
5.89532
5.90006
5.90853
5.91339
5.92183
5.92676
5.9352
5.94017
5.94865
5.95364
5.96218
5.96715
5.97147
5.97825
6.00555
5.88321
5.89384
5.89835
5.90707
5.91171
5.92034
5.92511
5.93368
5.93855
5.9471
5.95203
5.9606
5.96557
5.97416
5.97916
5.9878
5.99281
5.99717
6.00401
6.02201
5.89896
5.90974
5.9142
5.92299
5.92765
5.93633
5.94113
5.94975
5.95466
5.96325
5.96823
5.97681
5.98184
5.99045
5.99551
6.00417
6.00922
6.01361
6.02048
6.03401
5.91046
5.92125
5.92576
5.93459
5.93926
5.94797
5.95278
5.96145
5.96636
5.975
5.97998
5.98862
5.99365
6.00232
6.00737
6.01609
6.02115
6.02556
6.03247
6.04418
5.9202
5.93102
5.93553
5.94441
5.94908
5.95784
5.96267
5.97136
5.97629
5.98495
5.98996
5.99862
6.00368
6.01236
6.01745
6.02619
6.03127
6.03569
6.04262
6.05394
5.92957
5.94045
5.94496
5.95385
5.95856
5.96731
5.9722
5.98086
5.98586
5.9945
5.99958
6.00822
6.01333
6.02202
6.02714
6.03589
6.04101
6.04544
6.05239
6.06418
5.93938
5.95024
5.95483
5.96372
5.96845
5.97725
5.98212
5.99086
5.99583
6.00455
6.00958
6.01831
6.02339
6.03215
6.03725
6.04606
6.05117
6.05562
6.0626
6.07535
5.95009
5.96103
5.96559
5.97455
5.97927
5.98811
5.993
6.00177
6.00676
6.01551
6.02057
6.02932
6.03443
6.04321
6.04834
6.05717
6.06231
6.06677
6.07378
6.08784
5.96207
5.97305
5.97763
5.98661
5.99137
6.00023
6.00516
6.01393
6.01898
6.02772
6.03285
6.04159
6.04676
6.05554
6.06072
6.06957
6.07474
6.07922
6.08625
6.10172
5.97536
5.98639
5.991
6.00004
6.0048
6.01373
6.01864
6.02749
6.03251
6.04136
6.04644
6.05529
6.06042
6.06929
6.07446
6.08337
6.08855
6.09306
6.10012
6.1166
5.98965
6.00067
6.00535
6.01439
6.01921
6.02815
6.03311
6.04199
6.04705
6.05592
6.06104
6.06992
6.07508
6.08399
6.08919
6.09814
6.10335
6.10788
6.11497
6.13117
6.00365
6.01479
6.01942
6.02853
6.03334
6.04235
6.0473
6.05624
6.06131
6.07022
6.07538
6.08428
6.08949
6.09842
6.10366
6.11264
6.11788
6.12242
6.12955
6.14321
6.01778
6.0285
6.03301
6.04182
6.04655
6.05526
6.06019
6.06885
6.07393
6.08259
6.08778
6.09647
6.10173
6.11049
6.1158
6.12466
6.12999
6.13449
6.14163
6.14861
6.1486
6.1486
6.14859
6.1486
6.14859
6.1486
6.14858
6.14859
6.14858
6.14859
6.14858
6.14859
6.14858
6.14858
6.14858
6.14858
6.14858
6.14858
6.14858
)
;

boundaryField
{
    movingWall
    {
        type            calculated;
        value           nonuniform List<scalar> 
20
(
6.14861
6.1486
6.1486
6.14859
6.1486
6.14859
6.1486
6.14858
6.14859
6.14858
6.14859
6.14858
6.14859
6.14858
6.14858
6.14858
6.14858
6.14858
6.14858
6.14858
)
;
    }
    fixedWalls
    {
        type            calculated;
        value           nonuniform List<scalar> 
60
(
5.27083
5.40405
5.58729
5.74914
5.86411
5.93658
5.97974
6.00555
6.02201
6.03401
6.04418
6.05394
6.06418
6.07535
6.08784
6.10172
6.1166
6.13117
6.14321
6.14861
5.2708
5.40297
5.58607
5.74781
5.86269
5.93511
5.97825
6.00401
6.02048
6.03247
6.04262
6.05239
6.0626
6.07378
6.08625
6.10012
6.11497
6.12955
6.14163
6.14858
5.27083
5.27082
5.27082
5.27082
5.27081
5.27082
5.27081
5.27081
5.27081
5.27081
5.2708
5.27081
5.2708
5.27081
5.2708
5.27081
5.2708
5.2708
5.2708
5.2708
)
;
    }
    frontAndBack
    {
        type            empty;
    }
}


// ************************************************************************* //
