/*--------------------------------*- C++ -*----------------------------------*\
| =========                 |                                                 |
| \\      /  F ield         | OpenFOAM: The Open Source CFD Toolbox           |
|  \\    /   O peration     | Version:  2506                                  |
|   \\  /    A nd           | Website:  www.openfoam.com                      |
|    \\/     M anipulation  |                                                 |
\*---------------------------------------------------------------------------*/
FoamFile
{
    version     2.0;
    format      ascii;
    arch        "LSB;label=32;scalar=64";
    class       volScalarField;
    location    "6";
    object      turbulenceProperties:nuTilda;
}
// * * * * * * * * * * * * * * * * * * * * * * * * * * * * * * * * * * * * * //

dimensions      [0 2 -1 0 0 0 0];

internalField   nonuniform List<scalar> 
400
(
1.65014e-06
1.65014e-06
1.65014e-06
1.65014e-06
1.65014e-06
1.65014e-06
1.65014e-06
1.65013e-06
1.65014e-06
1.65013e-06
1.65013e-06
1.65013e-06
1.65013e-06
1.65013e-06
1.65013e-06
1.65013e-06
1.65013e-06
1.65013e-06
1.65013e-06
1.65013e-06
1.6912e-06
1.72211e-06
1.71927e-06
1.7181e-06
1.71581e-06
1.71459e-06
1.71234e-06
1.7111e-06
1.70887e-06
1.7076e-06
1.7054e-06
1.70412e-06
1.70193e-06
1.70064e-06
1.69845e-06
1.69716e-06
1.69498e-06
1.69369e-06
1.69259e-06
1.69086e-06
1.74779e-06
1.78135e-06
1.77822e-06
1.77693e-06
1.77441e-06
1.77307e-06
1.77061e-06
1.76923e-06
1.76683e-06
1.76543e-06
1.76305e-06
1.76165e-06
1.75929e-06
1.75789e-06
1.75554e-06
1.75416e-06
1.75181e-06
1.75044e-06
1.74926e-06
1.74742e-06
1.79791e-06
1.8335e-06
1.83018e-06
1.82881e-06
1.82612e-06
1.82471e-06
1.82209e-06
1.82065e-06
1.81807e-06
1.81661e-06
1.81407e-06
1.8126e-06
1.81008e-06
1.80862e-06
1.80611e-06
1.80465e-06
1.80215e-06
1.80071e-06
1.79946e-06
1.7975e-06
1.8336e-06
1.87071e-06
1.86725e-06
1.86581e-06
1.86301e-06
1.86154e-06
1.8588e-06
1.8573e-06
1.85461e-06
1.85309e-06
1.85044e-06
1.8489e-06
1.84628e-06
1.84475e-06
1.84213e-06
1.84062e-06
1.83801e-06
1.83651e-06
1.8352e-06
1.83316e-06
1.85613e-06
1.89423e-06
1.89067e-06
1.88919e-06
1.88633e-06
1.8848e-06
1.88201e-06
1.88045e-06
1.8777e-06
1.87613e-06
1.87341e-06
1.87184e-06
1.86914e-06
1.86757e-06
1.86489e-06
1.86333e-06
1.86066e-06
1.85911e-06
1.85777e-06
1.85568e-06
1.86958e-06
1.90827e-06
1.90464e-06
1.90316e-06
1.90024e-06
1.89869e-06
1.89586e-06
1.89427e-06
1.89149e-06
1.88987e-06
1.88714e-06
1.88551e-06
1.8828e-06
1.88118e-06
1.87848e-06
1.87687e-06
1.87417e-06
1.87259e-06
1.87123e-06
1.86911e-06
1.8776e-06
1.91664e-06
1.91302e-06
1.91148e-06
1.90856e-06
1.90699e-06
1.90412e-06
1.90253e-06
1.89971e-06
1.8981e-06
1.89531e-06
1.8937e-06
1.89093e-06
1.88932e-06
1.88658e-06
1.88498e-06
1.88224e-06
1.88065e-06
1.87928e-06
1.87713e-06
1.88274e-06
1.92202e-06
1.91833e-06
1.91683e-06
1.91387e-06
1.91229e-06
1.90941e-06
1.9078e-06
1.90497e-06
1.90334e-06
1.90055e-06
1.89891e-06
1.89615e-06
1.89451e-06
1.89177e-06
1.89014e-06
1.8874e-06
1.8858e-06
1.88442e-06
1.88226e-06
1.88647e-06
1.9259e-06
1.92222e-06
1.92069e-06
1.91772e-06
1.91614e-06
1.91325e-06
1.91164e-06
1.90879e-06
1.90716e-06
1.90435e-06
1.90272e-06
1.89993e-06
1.8983e-06
1.89553e-06
1.89391e-06
1.89115e-06
1.88955e-06
1.88816e-06
1.88599e-06
1.88963e-06
1.9292e-06
1.9255e-06
1.92397e-06
1.92098e-06
1.91941e-06
1.9165e-06
1.91488e-06
1.91202e-06
1.91039e-06
1.90757e-06
1.90593e-06
1.90314e-06
1.90149e-06
1.89872e-06
1.89709e-06
1.89432e-06
1.89271e-06
1.89132e-06
1.88915e-06
1.89267e-06
1.93237e-06
1.92864e-06
1.92712e-06
1.92413e-06
1.92253e-06
1.91963e-06
1.91799e-06
1.91515e-06
1.91348e-06
1.91068e-06
1.909e-06
1.90623e-06
1.90456e-06
1.90179e-06
1.90014e-06
1.89738e-06
1.89575e-06
1.89436e-06
1.89218e-06
1.89583e-06
1.93566e-06
1.93196e-06
1.93039e-06
1.92741e-06
1.92581e-06
1.92288e-06
1.92125e-06
1.91838e-06
1.91674e-06
1.91389e-06
1.91224e-06
1.90943e-06
1.90778e-06
1.90498e-06
1.90335e-06
1.90056e-06
1.89894e-06
1.89753e-06
1.89535e-06
1.8993e-06
1.93929e-06
1.93555e-06
1.93401e-06
1.93098e-06
1.92939e-06
1.92645e-06
1.92481e-06
1.92193e-06
1.92028e-06
1.91743e-06
1.91577e-06
1.91295e-06
1.91129e-06
1.90849e-06
1.90684e-06
1.90404e-06
1.90242e-06
1.90101e-06
1.89881e-06
1.90318e-06
1.94332e-06
1.93956e-06
1.93801e-06
1.93499e-06
1.93338e-06
1.93044e-06
1.92878e-06
1.92591e-06
1.92422e-06
1.92139e-06
1.91969e-06
1.91689e-06
1.9152e-06
1.9124e-06
1.91073e-06
1.90794e-06
1.9063e-06
1.90489e-06
1.90268e-06
1.90748e-06
1.94781e-06
1.94404e-06
1.94248e-06
1.93943e-06
1.93783e-06
1.93485e-06
1.93322e-06
1.9303e-06
1.92864e-06
1.92575e-06
1.92409e-06
1.92123e-06
1.91957e-06
1.91673e-06
1.91508e-06
1.91225e-06
1.91062e-06
1.9092e-06
1.90698e-06
1.91207e-06
1.9526e-06
1.94884e-06
1.94724e-06
1.94421e-06
1.94257e-06
1.9396e-06
1.93794e-06
1.93502e-06
1.93334e-06
1.93045e-06
1.92877e-06
1.92591e-06
1.92423e-06
1.92138e-06
1.91972e-06
1.91688e-06
1.91523e-06
1.91381e-06
1.91158e-06
1.9166e-06
1.9573e-06
1.95349e-06
1.95193e-06
1.94885e-06
1.94724e-06
1.94423e-06
1.94258e-06
1.93963e-06
1.93795e-06
1.93505e-06
1.93336e-06
1.93049e-06
1.92879e-06
1.92594e-06
1.92426e-06
1.92142e-06
1.91976e-06
1.91833e-06
1.91609e-06
1.92032e-06
1.96034e-06
1.95668e-06
1.95515e-06
1.95218e-06
1.95059e-06
1.94769e-06
1.94604e-06
1.94319e-06
1.9415e-06
1.93869e-06
1.93698e-06
1.93419e-06
1.93247e-06
1.92968e-06
1.92797e-06
1.92517e-06
1.92348e-06
1.92206e-06
1.91983e-06
1.92198e-06
1.92198e-06
1.92198e-06
1.92198e-06
1.92197e-06
1.92198e-06
1.92197e-06
1.92198e-06
1.92197e-06
1.92197e-06
1.92197e-06
1.92197e-06
1.92197e-06
1.92197e-06
1.92197e-06
1.92197e-06
1.92197e-06
1.92197e-06
1.92197e-06
1.92197e-06
)
;

boundaryField
{
    movingWall
    {
        type            calculated;
        value           nonuniform List<scalar> 
20
(
1.92198e-06
1.92198e-06
1.92198e-06
1.92198e-06
1.92197e-06
1.92198e-06
1.92197e-06
1.92198e-06
1.92197e-06
1.92197e-06
1.92197e-06
1.92197e-06
1.92197e-06
1.92197e-06
1.92197e-06
1.92197e-06
1.92197e-06
1.92197e-06
1.92197e-06
1.92197e-06
)
;
    }
    fixedWalls
    {
        type            calculated;
        value           nonuniform List<scalar> 
60
(
1.65014e-06
1.6912e-06
1.74779e-06
1.79791e-06
1.8336e-06
1.85613e-06
1.86958e-06
1.8776e-06
1.88274e-06
1.88647e-06
1.88963e-06
1.89267e-06
1.89583e-06
1.8993e-06
1.90318e-06
1.90748e-06
1.91207e-06
1.9166e-06
1.92032e-06
1.92198e-06
1.65013e-06
1.69086e-06
1.74742e-06
1.7975e-06
1.83316e-06
1.85568e-06
1.86911e-06
1.87713e-06
1.88226e-06
1.88599e-06
1.88915e-06
1.89218e-06
1.89535e-06
1.89881e-06
1.90268e-06
1.90698e-06
1.91158e-06
1.91609e-06
1.91983e-06
1.92197e-06
1.65014e-06
1.65014e-06
1.65014e-06
1.65014e-06
1.65014e-06
1.65014e-06
1.65014e-06
1.65013e-06
1.65014e-06
1.65013e-06
1.65013e-06
1.65013e-06
1.65013e-06
1.65013e-06
1.65013e-06
1.65013e-06
1.65013e-06
1.65013e-06
1.65013e-06
1.65013e-06
)
;
    }
    frontAndBack
    {
        type            empty;
    }
}


// ************************************************************************* //
