/*--------------------------------*- C++ -*----------------------------------*\
| =========                 |                                                 |
| \\      /  F ield         | OpenFOAM: The Open Source CFD Toolbox           |
|  \\    /   O peration     | Version:  2506                                  |
|   \\  /    A nd           | Website:  www.openfoam.com                      |
|    \\/     M anipulation  |                                                 |
\*---------------------------------------------------------------------------*/
FoamFile
{
    version     2.0;
    format      ascii;
    arch        "LSB;label=32;scalar=64";
    class       volScalarField;
    location    "6";
    object      turbulenceProperties:I;
}
// * * * * * * * * * * * * * * * * * * * * * * * * * * * * * * * * * * * * * //

dimensions      [0 0 0 0 0 0 0];

internalField   nonuniform List<scalar> 
400
(
0.00240799
0.00240798
0.00240798
0.00240798
0.00240798
0.00240798
0.00240798
0.00240798
0.00240798
0.00240798
0.00240798
0.00240798
0.00240798
0.00240798
0.00240798
0.00240798
0.00240798
0.00240798
0.00240798
0.00240798
0.00246838
0.00246838
0.00246829
0.00246825
0.0024682
0.00246817
0.00246812
0.00246809
0.00246805
0.00246803
0.002468
0.00246797
0.00246795
0.00246793
0.00246792
0.00246791
0.0024679
0.00246789
0.00246789
0.00246788
0.00255153
0.00255153
0.00255143
0.00255139
0.00255133
0.00255129
0.00255124
0.0025512
0.00255116
0.00255113
0.0025511
0.00255107
0.00255105
0.00255102
0.00255101
0.00255099
0.00255099
0.00255098
0.00255098
0.00255097
0.00262506
0.00262506
0.00262496
0.00262492
0.00262484
0.00262481
0.00262475
0.00262471
0.00262467
0.00262463
0.0026246
0.00262457
0.00262454
0.00262452
0.0026245
0.00262449
0.00262448
0.00262447
0.00262446
0.00262446
0.00267736
0.00267736
0.00267725
0.00267721
0.00267713
0.00267709
0.00267702
0.00267699
0.00267694
0.0026769
0.00267686
0.00267683
0.00267681
0.00267678
0.00267676
0.00267675
0.00267674
0.00267673
0.00267672
0.00267672
0.00271036
0.00271036
0.00271024
0.00271019
0.00271012
0.00271007
0.00271001
0.00270997
0.00270992
0.00270988
0.00270984
0.00270981
0.00270978
0.00270976
0.00270974
0.00270972
0.00270971
0.0027097
0.00270969
0.00270969
0.00273003
0.00273003
0.0027299
0.00272986
0.00272978
0.00272973
0.00272967
0.00272963
0.00272958
0.00272954
0.0027295
0.00272946
0.00272944
0.00272941
0.0027294
0.00272937
0.00272936
0.00272935
0.00272935
0.00272935
0.00274178
0.00274177
0.00274166
0.0027416
0.00274153
0.00274148
0.00274142
0.00274137
0.00274132
0.00274128
0.00274124
0.00274121
0.00274118
0.00274116
0.00274113
0.00274112
0.0027411
0.00274109
0.00274109
0.00274109
0.00274929
0.00274929
0.00274916
0.00274912
0.00274904
0.00274899
0.00274893
0.00274888
0.00274883
0.00274879
0.00274875
0.00274871
0.00274869
0.00274866
0.00274864
0.00274862
0.00274861
0.0027486
0.00274859
0.00274859
0.00275475
0.00275475
0.00275462
0.00275458
0.00275449
0.00275445
0.00275438
0.00275434
0.00275429
0.00275425
0.00275421
0.00275417
0.00275414
0.00275412
0.0027541
0.00275408
0.00275407
0.00275406
0.00275405
0.00275405
0.00275938
0.00275938
0.00275925
0.0027592
0.00275912
0.00275907
0.00275901
0.00275896
0.00275891
0.00275887
0.00275883
0.00275879
0.00275877
0.00275874
0.00275872
0.0027587
0.00275869
0.00275868
0.00275867
0.00275867
0.00276382
0.00276382
0.00276369
0.00276365
0.00276357
0.00276352
0.00276346
0.0027634
0.00276336
0.00276331
0.00276328
0.00276323
0.00276322
0.00276318
0.00276317
0.00276314
0.00276313
0.00276312
0.00276312
0.00276311
0.00276847
0.00276847
0.00276835
0.00276829
0.00276821
0.00276816
0.0027681
0.00276805
0.002768
0.00276796
0.00276792
0.00276789
0.00276785
0.00276783
0.00276781
0.00276779
0.00276778
0.00276777
0.00276776
0.00276776
0.00277356
0.00277356
0.00277343
0.00277338
0.0027733
0.00277325
0.00277318
0.00277313
0.00277308
0.00277304
0.002773
0.00277297
0.00277294
0.00277291
0.00277289
0.00277287
0.00277286
0.00277285
0.00277284
0.00277284
0.00277924
0.00277923
0.0027791
0.00277906
0.00277897
0.00277892
0.00277886
0.00277881
0.00277876
0.00277871
0.00277868
0.00277864
0.00277862
0.00277858
0.00277857
0.00277854
0.00277853
0.00277852
0.00277852
0.00277851
0.00278554
0.00278554
0.00278541
0.00278537
0.00278528
0.00278523
0.00278516
0.00278512
0.00278506
0.00278503
0.00278498
0.00278495
0.00278491
0.00278489
0.00278487
0.00278485
0.00278483
0.00278483
0.00278482
0.00278482
0.0027923
0.00279229
0.00279217
0.00279211
0.00279204
0.00279198
0.00279192
0.00279187
0.00279182
0.00279177
0.00279173
0.0027917
0.00279167
0.00279164
0.00279162
0.0027916
0.00279158
0.00279158
0.00279157
0.00279157
0.00279892
0.00279893
0.00279879
0.00279875
0.00279866
0.00279861
0.00279854
0.00279849
0.00279844
0.0027984
0.00279836
0.00279832
0.00279829
0.00279826
0.00279824
0.00279822
0.00279821
0.0027982
0.00279819
0.00279819
0.00280439
0.00280439
0.00280426
0.00280422
0.00280413
0.00280408
0.00280402
0.00280397
0.00280392
0.00280387
0.00280384
0.0028038
0.00280377
0.00280374
0.00280372
0.0028037
0.00280369
0.00280368
0.00280367
0.00280367
0.00280684
0.00280683
0.00280683
0.00280683
0.00280683
0.00280683
0.00280683
0.00280683
0.00280683
0.00280683
0.00280683
0.00280683
0.00280683
0.00280683
0.00280683
0.00280683
0.00280683
0.00280683
0.00280683
0.00280683
)
;

boundaryField
{
    movingWall
    {
        type            calculated;
        value           nonuniform List<scalar> 
20
(
0.00280684
0.00280683
0.00280683
0.00280683
0.00280683
0.00280683
0.00280683
0.00280683
0.00280683
0.00280683
0.00280683
0.00280683
0.00280683
0.00280683
0.00280683
0.00280683
0.00280683
0.00280683
0.00280683
0.00280683
)
;
    }
    fixedWalls
    {
        type            calculated;
        value           nonuniform List<scalar> 
60
(
0.00240799
0.00246838
0.00255153
0.00262506
0.00267736
0.00271036
0.00273003
0.00274178
0.00274929
0.00275475
0.00275938
0.00276382
0.00276847
0.00277356
0.00277924
0.00278554
0.0027923
0.00279892
0.00280439
0.00280684
0.00240798
0.00246788
0.00255097
0.00262446
0.00267672
0.00270969
0.00272935
0.00274109
0.00274859
0.00275405
0.00275867
0.00276311
0.00276776
0.00277284
0.00277851
0.00278482
0.00279157
0.00279819
0.00280367
0.00280683
0.00240799
0.00240798
0.00240798
0.00240798
0.00240798
0.00240798
0.00240798
0.00240798
0.00240798
0.00240798
0.00240798
0.00240798
0.00240798
0.00240798
0.00240798
0.00240798
0.00240798
0.00240798
0.00240798
0.00240798
)
;
    }
    frontAndBack
    {
        type            empty;
    }
}


// ************************************************************************* //
