/*--------------------------------*- C++ -*----------------------------------*\
| =========                 |                                                 |
| \\      /  F ield         | OpenFOAM: The Open Source CFD Toolbox           |
|  \\    /   O peration     | Version:  2506                                  |
|   \\  /    A nd           | Website:  www.openfoam.com                      |
|    \\/     M anipulation  |                                                 |
\*---------------------------------------------------------------------------*/
FoamFile
{
    version     2.0;
    format      ascii;
    arch        "LSB;label=32;scalar=64";
    class       volTensorField;
    location    "6";
    object      U2;
}
// * * * * * * * * * * * * * * * * * * * * * * * * * * * * * * * * * * * * * //

dimensions      [0 2 -2 0 0 0 0];

internalField   nonuniform List<tensor> 
400
(
(1 -1.12922e-13 -0 -1.13469e-13 1.28132e-26 0 -0 0 0)
(1 2.3844e-14 -0 2.39196e-14 5.7034e-28 -0 -0 -0 0)
(1 -5.75223e-15 -0 -5.77376e-15 3.3212e-29 0 -0 0 0)
(1 1.08779e-15 -0 1.07289e-15 1.16708e-30 -0 -0 -0 0)
(1 -2.93182e-16 -0 -3.52114e-16 1.03234e-31 0 -0 0 0)
(1 -4.39537e-17 -0 -9.36058e-17 4.11433e-33 0 -0 0 0)
(1 -1.81654e-16 -0 -2.10178e-16 3.81797e-32 0 -0 0 0)
(1 -1.68334e-16 -0 -1.5899e-16 2.67633e-32 0 -0 0 0)
(1 -1.49403e-16 -0 -9.1092e-17 1.36094e-32 0 -0 0 0)
(1 -6.63489e-17 -0 -2.24009e-17 1.48627e-33 0 -0 0 0)
(1 -1.66431e-17 -0 -3.60209e-17 5.99502e-34 0 -0 0 0)
(1 2.03736e-17 -0 -1.80601e-17 -3.67947e-34 0 -0 -0 0)
(1 6.23124e-17 -0 2.19533e-17 1.36796e-33 -0 -0 -0 0)
(1 4.89154e-17 -0 2.26267e-17 1.10679e-33 -0 -0 -0 0)
(1 -1.25379e-17 -0 -1.31636e-18 1.65043e-35 0 -0 0 0)
(1 -6.268e-17 -0 -1.56324e-17 9.79841e-34 0 -0 0 0)
(1 -8.78287e-18 -0 8.17424e-17 -7.17932e-34 -0 -0 0 0)
(1 9.36173e-17 -0 9.24492e-17 8.65484e-33 -0 -0 -0 0)
(1 4.63916e-17 -0 -4.78785e-17 -2.22116e-33 0 -0 -0 0)
(1 -4.88511e-18 -0 1.65595e-17 -8.0895e-35 -0 -0 0 0)
(1 -2.95622e-14 -0 -2.95971e-14 8.74954e-28 0 -0 0 0)
(1 6.38837e-15 -0 6.25371e-15 3.9951e-29 -0 -0 -0 0)
(1 -1.77149e-15 -0 -1.75318e-15 3.10573e-30 0 -0 0 0)
(1 2.31538e-16 -0 2.93589e-16 6.7977e-32 -0 -0 -0 0)
(1 -2.28491e-17 -0 4.11044e-17 -9.39198e-34 -0 -0 0 0)
(1 1.22365e-16 -0 1.08023e-16 1.32182e-32 -0 -0 -0 0)
(1 1.79846e-17 -0 -4.22037e-17 -7.59015e-34 0 -0 -0 0)
(1 -5.89573e-17 -0 -1.31901e-16 7.77654e-33 0 -0 0 0)
(1 -1.44915e-16 -0 -1.77387e-16 2.57061e-32 0 -0 0 0)
(1 -1.15371e-16 -0 -8.64251e-17 9.97097e-33 0 -0 0 0)
(1 -6.19896e-17 -0 -5.30763e-17 3.29018e-33 0 -0 0 0)
(1 5.71343e-19 -0 -6.47467e-18 -3.69926e-36 0 -0 -0 0)
(1 1.5984e-16 -0 8.77464e-17 1.40254e-32 -0 -0 -0 0)
(1 1.15956e-16 -0 5.40451e-17 6.26684e-33 -0 -0 -0 0)
(1 -6.40421e-17 -0 -6.56429e-17 4.20391e-33 0 -0 0 0)
(1 -1.65965e-16 -0 -1.44974e-16 2.40607e-32 0 -0 0 0)
(1 -8.61896e-17 -0 -4.1621e-17 3.58729e-33 0 -0 0 0)
(1 1.98746e-17 -0 2.6124e-17 5.19204e-34 -0 -0 -0 0)
(1 9.58784e-17 -0 2.24506e-17 2.15252e-33 -0 -0 -0 0)
(1 1.00432e-16 -0 9.18745e-17 9.2271e-33 -0 -0 -0 0)
(1 1.24269e-13 -0 1.24158e-13 1.5429e-26 -0 -0 -0 0)
(1 -2.70144e-14 -0 -2.70233e-14 7.30018e-28 0 -0 0 0)
(1 6.53552e-15 -0 6.44834e-15 4.21432e-29 -0 -0 -0 0)
(1 -1.29039e-15 -0 -1.31454e-15 1.69628e-30 0 -0 0 0)
(1 3.20298e-16 -0 3.78013e-16 1.21077e-31 -0 -0 -0 0)
(1 -2.10084e-17 -0 7.12588e-19 -1.49703e-35 -0 -0 0 0)
(1 6.09492e-17 -0 7.65704e-17 4.6669e-33 -0 -0 -0 0)
(1 6.12435e-17 -0 1.86063e-17 1.13951e-33 -0 -0 -0 0)
(1 9.12209e-18 -0 -7.05119e-17 -6.43216e-34 0 -0 -0 0)
(1 1.15201e-17 -0 -5.41094e-17 -6.23347e-34 0 -0 -0 0)
(1 -1.54943e-17 -0 -2.83464e-17 4.39209e-34 0 -0 0 0)
(1 -8.92291e-19 -0 -3.38257e-17 3.01824e-35 0 -0 0 0)
(1 9.10701e-18 -0 -3.70311e-17 -3.37242e-34 0 -0 -0 0)
(1 -6.77316e-17 -0 -6.51131e-17 4.41021e-33 0 -0 0 0)
(1 -1.78699e-16 -0 -1.23783e-16 2.21199e-32 0 -0 0 0)
(1 -1.30557e-16 -0 -1.36953e-16 1.78802e-32 0 -0 0 0)
(1 2.09832e-17 -0 -5.99693e-17 -1.25835e-33 0 -0 -0 0)
(1 8.03862e-17 -0 4.77939e-17 3.84197e-33 -0 -0 -0 0)
(1 1.32516e-16 -0 1.27166e-16 1.68515e-32 -0 -0 -0 0)
(1 1.49961e-16 -0 1.21484e-16 1.82179e-32 -0 -0 -0 0)
(1 -7.94634e-14 -0 -7.99225e-14 6.35092e-27 0 -0 0 0)
(1 1.71837e-14 -0 1.72045e-14 2.95636e-28 -0 -0 -0 0)
(1 -3.82073e-15 -0 -3.95356e-15 1.51055e-29 0 -0 0 0)
(1 9.87328e-16 -0 8.17681e-16 8.0732e-31 -0 -0 -0 0)
(1 -2.96252e-16 -0 -3.80249e-16 1.12649e-31 0 -0 0 0)
(1 -1.67719e-16 -0 -1.55277e-16 2.60428e-32 0 -0 0 0)
(1 -1.16324e-16 -0 -5.16447e-17 6.0075e-33 0 -0 0 0)
(1 2.78562e-18 -0 2.59373e-17 7.22516e-35 -0 -0 -0 0)
(1 5.9463e-17 -0 3.41327e-18 2.02963e-34 -0 -0 -0 0)
(1 1.85878e-17 -0 -5.45501e-17 -1.01397e-33 0 -0 -0 0)
(1 -1.64449e-17 -0 -2.05439e-19 3.37841e-36 0 -0 0 0)
(1 -1.04029e-17 -0 -2.49184e-17 2.59223e-34 0 -0 0 0)
(1 -1.07254e-16 -0 -1.08162e-16 1.16008e-32 0 -0 0 0)
(1 -1.24691e-16 -0 -8.16266e-17 1.01781e-32 0 -0 0 0)
(1 -1.89906e-17 -0 2.7278e-17 -5.18025e-34 -0 -0 0 0)
(1 1.09204e-16 -0 1.07908e-16 1.17839e-32 -0 -0 -0 0)
(1 1.35782e-16 -0 6.33665e-17 8.60404e-33 -0 -0 -0 0)
(1 1.70731e-16 -0 1.32425e-16 2.2609e-32 -0 -0 -0 0)
(1 1.76928e-16 -0 1.4479e-16 2.56173e-32 -0 -0 -0 0)
(1 1.04548e-16 -0 8.16901e-17 8.54057e-33 -0 -0 -0 0)
(1 3.97539e-16 -0 5.76264e-16 2.29087e-31 -0 -0 -0 0)
(1 5.75101e-16 -0 3.57944e-16 2.05854e-31 -0 -0 -0 0)
(1 -1.02221e-16 -0 -1.3318e-16 1.36138e-32 0 -0 0 0)
(1 8.13841e-17 -0 6.29103e-17 5.1199e-33 -0 -0 -0 0)
(1 -4.63902e-19 -0 -2.50683e-17 1.16293e-35 0 -0 0 0)
(1 -3.55042e-17 -0 -4.19859e-17 1.49068e-33 0 -0 0 0)
(1 1.51323e-17 -0 2.72026e-17 4.11637e-34 -0 -0 -0 0)
(1 5.12813e-17 -0 3.62705e-17 1.86e-33 -0 -0 -0 0)
(1 8.41985e-17 -0 3.31687e-17 2.79276e-33 -0 -0 -0 0)
(1 -4.07527e-17 -0 -6.90138e-17 2.8125e-33 0 -0 0 0)
(1 -3.2394e-17 -0 -3.11153e-17 1.00795e-33 0 -0 0 0)
(1 -4.57039e-17 -0 -9.95392e-17 4.54933e-33 0 -0 0 0)
(1 -9.05157e-17 -0 -9.71058e-17 8.7896e-33 0 -0 0 0)
(1 -5.39628e-17 -0 1.33914e-17 -7.22638e-34 -0 -0 0 0)
(1 8.66361e-17 -0 1.10074e-16 9.53638e-33 -0 -0 -0 0)
(1 1.77084e-16 -0 1.74507e-16 3.09025e-32 -0 -0 -0 0)
(1 1.52187e-16 -0 9.26508e-17 1.41002e-32 -0 -0 -0 0)
(1 6.17345e-17 -0 6.81578e-17 4.20769e-33 -0 -0 -0 0)
(1 9.78893e-17 -0 8.12932e-17 7.95774e-33 -0 -0 -0 0)
(1 7.79886e-17 -0 1.1196e-17 8.73158e-34 -0 -0 -0 0)
(1 6.80226e-14 -0 6.82279e-14 4.64104e-27 -0 -0 -0 0)
(1 -1.44203e-14 -0 -1.45246e-14 2.09449e-28 0 -0 0 0)
(1 3.40392e-15 -0 3.42708e-15 1.16655e-29 -0 -0 -0 0)
(1 -6.83204e-16 -0 -6.33403e-16 4.32743e-31 0 -0 0 0)
(1 2.50812e-16 -0 2.32823e-16 5.83947e-32 -0 -0 -0 0)
(1 5.45367e-17 -0 7.99999e-18 4.36293e-34 -0 -0 -0 0)
(1 5.31545e-17 -0 2.00551e-17 1.06602e-33 -0 -0 -0 0)
(1 5.37751e-17 -0 5.67703e-18 3.05283e-34 -0 -0 -0 0)
(1 6.61451e-17 -0 8.98474e-17 5.94297e-33 -0 -0 -0 0)
(1 4.05889e-17 -0 7.97372e-17 3.23644e-33 -0 -0 -0 0)
(1 2.72956e-17 -0 -8.20185e-17 -2.23874e-33 0 -0 -0 0)
(1 -6.23677e-17 -0 -2.67296e-16 1.66706e-32 0 -0 0 0)
(1 -2.20534e-16 -0 -2.57886e-16 5.68727e-32 0 -0 0 0)
(1 -1.7399e-16 -0 -3.46311e-17 6.02546e-33 0 -0 0 0)
(1 -3.27207e-17 -0 7.04202e-17 -2.3042e-33 -0 -0 0 0)
(1 1.07448e-16 -0 1.07643e-16 1.15661e-32 -0 -0 -0 0)
(1 1.46251e-16 -0 1.39412e-16 2.03892e-32 -0 -0 -0 0)
(1 8.45717e-17 -0 6.61489e-17 5.59433e-33 -0 -0 -0 0)
(1 2.22452e-17 -0 -2.9968e-17 -6.66645e-34 0 -0 -0 0)
(1 1.75883e-18 -0 -2.26039e-17 -3.97565e-35 0 -0 -0 0)
(1 -8.42418e-14 -0 -8.52667e-14 7.18302e-27 0 -0 0 0)
(1 1.70626e-14 -0 1.71965e-14 2.93417e-28 -0 -0 -0 0)
(1 -4.11625e-15 -0 -4.19015e-15 1.72477e-29 0 -0 0 0)
(1 8.34315e-16 -0 7.85684e-16 6.55507e-31 -0 -0 -0 0)
(1 -1.62823e-16 -0 -2.4382e-16 3.96994e-32 0 -0 0 0)
(1 -1.16371e-17 -0 5.44845e-18 -6.34044e-35 -0 -0 0 0)
(1 -2.52353e-17 -0 -2.37522e-17 5.99393e-34 0 -0 0 0)
(1 -4.37979e-17 -0 -1.27476e-16 5.58317e-33 0 -0 0 0)
(1 -9.21927e-17 -0 -2.15876e-16 1.99022e-32 0 -0 0 0)
(1 -1.6199e-16 -0 -1.81721e-16 2.94371e-32 0 -0 0 0)
(1 -2.15756e-16 -0 -2.03972e-16 4.40083e-32 0 -0 0 0)
(1 -8.8998e-17 -0 -4.9678e-17 4.42125e-33 0 -0 0 0)
(1 2.04245e-17 -0 8.74076e-17 1.78525e-33 -0 -0 -0 0)
(1 1.05625e-16 -0 1.52699e-16 1.61288e-32 -0 -0 -0 0)
(1 1.31879e-16 -0 9.46917e-17 1.24879e-32 -0 -0 -0 0)
(1 7.53818e-17 -0 -4.71268e-17 -3.5525e-33 0 -0 -0 0)
(1 -1.13048e-16 -0 -1.04751e-16 1.18419e-32 0 -0 0 0)
(1 -9.44465e-17 -0 -1.08068e-16 1.02066e-32 0 -0 0 0)
(1 -1.50824e-17 -0 -3.94167e-17 5.94498e-34 0 -0 0 0)
(1 -3.72244e-17 -0 4.50733e-18 -1.67783e-34 -0 -0 0 0)
(1 2.6102e-14 -0 2.63665e-14 6.88219e-28 -0 -0 -0 0)
(1 -5.32408e-15 -0 -5.49783e-15 2.92708e-29 0 -0 0 0)
(1 1.13395e-15 -0 1.08336e-15 1.22847e-30 -0 -0 -0 0)
(1 -2.85852e-16 -0 -3.79165e-16 1.08385e-31 0 -0 0 0)
(1 -1.43818e-18 -0 -8.71208e-17 1.25295e-34 0 -0 0 0)
(1 -3.22624e-17 -0 -7.8392e-17 2.52912e-33 0 -0 0 0)
(1 -2.18278e-17 -0 -6.85901e-17 1.49717e-33 0 -0 0 0)
(1 -6.07429e-17 -0 -1.11135e-16 6.75067e-33 0 -0 0 0)
(1 -1.00488e-16 -0 -1.65546e-16 1.66354e-32 0 -0 0 0)
(1 -1.03034e-16 -0 -1.18483e-16 1.22079e-32 0 -0 0 0)
(1 -1.04512e-17 -0 3.25736e-17 -3.40432e-34 -0 -0 0 0)
(1 1.97265e-16 -0 2.56961e-16 5.06894e-32 -0 -0 -0 0)
(1 2.72029e-16 -0 2.18315e-16 5.93879e-32 -0 -0 -0 0)
(1 1.4978e-16 -0 8.64299e-18 1.29455e-33 -0 -0 -0 0)
(1 1.1297e-17 -0 -2.65698e-17 -3.00159e-34 0 -0 -0 0)
(1 -5.01412e-17 -0 -5.41567e-17 2.71548e-33 0 -0 0 0)
(1 -7.87099e-17 -0 -4.68174e-17 3.68499e-33 0 -0 0 0)
(1 -3.05824e-17 -0 -2.5578e-17 7.82237e-34 0 -0 0 0)
(1 -1.86498e-18 -0 -4.87018e-17 9.0828e-35 0 -0 0 0)
(1 -2.38022e-17 -0 -7.12889e-18 1.69683e-34 0 -0 0 0)
(1 4.41902e-14 -0 4.4527e-14 1.96765e-27 -0 -0 -0 0)
(1 -8.95965e-15 -0 -9.14906e-15 8.19724e-29 0 -0 0 0)
(1 2.12565e-15 -0 2.08595e-15 4.434e-30 -0 -0 -0 0)
(1 -5.00465e-16 -0 -5.68512e-16 2.8452e-31 0 -0 0 0)
(1 5.57719e-17 -0 2.7804e-17 1.55068e-33 -0 -0 -0 0)
(1 1.08961e-16 -0 -5.55128e-17 -6.04873e-33 0 -0 -0 0)
(1 1.30305e-16 -0 -7.46523e-17 -9.72754e-33 0 -0 -0 0)
(1 5.11956e-17 -0 -2.55786e-17 -1.30951e-33 0 -0 -0 0)
(1 -2.07519e-17 -0 5.71014e-17 -1.18496e-33 -0 -0 0 0)
(1 -2.38692e-17 -0 6.41356e-17 -1.53087e-33 -0 -0 0 0)
(1 1.52202e-16 -0 1.54577e-16 2.35269e-32 -0 -0 -0 0)
(1 1.71209e-16 -0 1.02738e-16 1.75898e-32 -0 -0 -0 0)
(1 6.22951e-17 -0 -2.17025e-17 -1.35196e-33 0 -0 -0 0)
(1 -5.3016e-17 -0 -1.30817e-16 6.93542e-33 0 -0 0 0)
(1 -1.07004e-16 -0 -9.69644e-17 1.03756e-32 0 -0 0 0)
(1 -1.21758e-16 -0 -5.40637e-17 6.58267e-33 0 -0 0 0)
(1 1.96844e-20 -0 4.03419e-18 7.94106e-38 -0 -0 -0 0)
(1 1.57353e-17 -0 -4.97446e-18 -7.82745e-35 0 -0 -0 0)
(1 -4.5146e-17 -0 -7.56494e-17 3.41527e-33 0 -0 0 0)
(1 5.0545e-18 -0 -1.97262e-17 -9.97062e-35 0 -0 -0 0)
(1 -6.98973e-14 -0 -7.07973e-14 4.94854e-27 0 -0 0 0)
(1 1.43935e-14 -0 1.45496e-14 2.09421e-28 -0 -0 -0 0)
(1 -3.17905e-15 -0 -3.32919e-15 1.05837e-29 0 -0 0 0)
(1 7.04593e-16 -0 5.80914e-16 4.09308e-31 -0 -0 -0 0)
(1 -1.45966e-16 -0 -2.732e-16 3.9878e-32 0 -0 0 0)
(1 3.01004e-18 -0 -1.9897e-16 -5.98908e-34 0 -0 -0 0)
(1 -6.51038e-17 -0 -1.94005e-16 1.26305e-32 0 -0 0 0)
(1 -5.25453e-17 -0 -1.48534e-17 7.80477e-34 0 -0 0 0)
(1 -1.95041e-17 -0 6.38026e-17 -1.24441e-33 -0 -0 0 0)
(1 -3.18149e-17 -0 -2.34814e-17 7.4706e-34 0 -0 0 0)
(1 -2.27715e-17 -0 7.0752e-18 -1.61113e-34 -0 -0 0 0)
(1 4.03629e-17 -0 1.0362e-16 4.18241e-33 -0 -0 -0 0)
(1 8.41638e-17 -0 1.35821e-16 1.14312e-32 -0 -0 -0 0)
(1 1.09643e-16 -0 1.35083e-16 1.48109e-32 -0 -0 -0 0)
(1 1.13101e-16 -0 -2.80387e-18 -3.1712e-34 0 -0 -0 0)
(1 -6.85821e-17 -0 -1.07659e-16 7.38351e-33 0 -0 0 0)
(1 -1.34615e-16 -0 -1.1543e-16 1.55387e-32 0 -0 0 0)
(1 -7.89055e-17 -0 -2.47823e-17 1.95546e-33 0 -0 0 0)
(1 -1.4094e-17 -0 4.12114e-17 -5.80833e-34 -0 -0 0 0)
(1 2.33831e-17 -0 1.25386e-17 2.93191e-34 -0 -0 -0 0)
(1 6.48029e-14 -0 6.537e-14 4.23617e-27 -0 -0 -0 0)
(1 -1.34866e-14 -0 -1.37468e-14 1.85399e-28 0 -0 0 0)
(1 3.19329e-15 -0 3.06774e-15 9.79617e-30 -0 -0 -0 0)
(1 -6.52443e-16 -0 -7.7883e-16 5.08143e-31 0 -0 0 0)
(1 6.16138e-17 -0 2.07168e-17 1.27644e-33 -0 -0 -0 0)
(1 -1.75336e-17 -0 -7.81842e-17 1.37085e-33 0 -0 0 0)
(1 -2.71862e-17 -0 -3.81377e-17 1.03682e-33 0 -0 0 0)
(1 -5.57325e-17 -0 -2.60104e-17 1.44963e-33 0 -0 0 0)
(1 -6.20091e-17 -0 -5.57362e-17 3.45615e-33 0 -0 0 0)
(1 -4.40259e-17 -0 -9.94144e-17 4.3768e-33 0 -0 0 0)
(1 -1.14873e-16 -0 -1.07978e-16 1.24037e-32 0 -0 0 0)
(1 -1.93041e-17 -0 6.14162e-17 -1.18559e-33 -0 -0 0 0)
(1 9.42091e-17 -0 7.67105e-17 7.22683e-33 -0 -0 -0 0)
(1 -4.97016e-17 -0 -6.17855e-17 3.07084e-33 0 -0 0 0)
(1 -1.27102e-16 -0 -1.69948e-16 2.16007e-32 0 -0 0 0)
(1 -1.27735e-16 -0 -6.6211e-17 8.45748e-33 0 -0 0 0)
(1 -4.74216e-17 -0 2.46449e-17 -1.1687e-33 -0 -0 0 0)
(1 4.47313e-17 -0 4.7513e-17 2.12532e-33 -0 -0 -0 0)
(1 2.71044e-17 -0 2.34647e-17 6.35998e-34 -0 -0 -0 0)
(1 -4.14679e-17 -0 9.27109e-19 -3.84453e-35 -0 -0 0 0)
(1 -3.48278e-14 -0 -3.50588e-14 1.22102e-27 0 -0 0 0)
(1 7.38137e-15 -0 7.25319e-15 5.35384e-29 -0 -0 -0 0)
(1 -1.78937e-15 -0 -1.89468e-15 3.39029e-30 0 -0 0 0)
(1 3.00665e-16 -0 2.89287e-16 8.69786e-32 -0 -0 -0 0)
(1 -6.39305e-17 -0 -6.9531e-17 4.44515e-33 0 -0 0 0)
(1 5.70067e-17 -0 6.23787e-17 3.556e-33 -0 -0 -0 0)
(1 5.98788e-18 -0 -3.58458e-17 -2.1464e-34 0 -0 -0 0)
(1 -5.40169e-17 -0 -3.74294e-17 2.02182e-33 0 -0 0 0)
(1 -8.79872e-17 -0 -3.13057e-17 2.7545e-33 0 -0 0 0)
(1 -1.51651e-17 -0 1.56967e-17 -2.38042e-34 -0 -0 0 0)
(1 1.636e-17 -0 4.17951e-17 6.83769e-34 -0 -0 -0 0)
(1 -1.96335e-17 -0 1.82899e-17 -3.59094e-34 -0 -0 0 0)
(1 6.6925e-18 -0 1.51745e-17 1.01555e-34 -0 -0 -0 0)
(1 -7.17267e-17 -0 -8.82711e-17 6.33139e-33 0 -0 0 0)
(1 -1.39683e-16 -0 -1.37979e-16 1.92733e-32 0 -0 0 0)
(1 -4.0071e-17 -0 -3.0665e-17 1.22878e-33 0 -0 0 0)
(1 4.25033e-17 -0 7.66946e-18 3.25978e-34 -0 -0 -0 0)
(1 -3.13855e-17 -0 -8.0758e-17 2.53463e-33 0 -0 0 0)
(1 -7.28551e-17 -0 -8.92907e-17 6.50528e-33 0 -0 0 0)
(1 -8.83619e-17 -0 -6.28098e-17 5.54999e-33 0 -0 0 0)
(1 -1.39212e-14 -0 -1.42646e-14 1.9858e-28 0 -0 0 0)
(1 2.71102e-15 -0 2.66609e-15 7.22784e-30 -0 -0 -0 0)
(1 -8.98174e-16 -0 -7.87928e-16 7.07697e-31 0 -0 0 0)
(1 1.6806e-16 -0 2.09315e-16 3.51775e-32 -0 -0 -0 0)
(1 1.59699e-16 -0 2.14685e-17 3.42849e-33 -0 -0 -0 0)
(1 1.10525e-17 -0 -9.54956e-17 -1.05546e-33 0 -0 -0 0)
(1 -1.24735e-16 -0 -1.52603e-16 1.90348e-32 0 -0 0 0)
(1 -1.68287e-16 -0 -1.20672e-16 2.03076e-32 0 -0 0 0)
(1 -1.00429e-16 -0 4.90816e-17 -4.92922e-33 -0 -0 0 0)
(1 8.9771e-17 -0 2.60737e-16 2.34066e-32 -0 -0 -0 0)
(1 2.55094e-16 -0 2.85396e-16 7.28028e-32 -0 -0 -0 0)
(1 1.72964e-16 -0 1.14813e-16 1.98585e-32 -0 -0 -0 0)
(1 8.28838e-18 -0 -1.27968e-17 -1.06065e-34 0 -0 -0 0)
(1 5.59478e-17 -0 2.04439e-17 1.14379e-33 -0 -0 -0 0)
(1 1.25622e-16 -0 1.29492e-16 1.6267e-32 -0 -0 -0 0)
(1 1.31086e-16 -0 7.00691e-17 9.18504e-33 -0 -0 -0 0)
(1 9.23833e-17 -0 4.12943e-17 3.81491e-33 -0 -0 -0 0)
(1 2.23888e-17 -0 5.62172e-17 1.25864e-33 -0 -0 -0 0)
(1 5.82028e-17 -0 1.16459e-16 6.77823e-33 -0 -0 -0 0)
(1 2.19771e-17 -0 5.06362e-17 1.11284e-33 -0 -0 -0 0)
(1 5.98766e-14 -0 6.00289e-14 3.59433e-27 -0 -0 -0 0)
(1 -1.25833e-14 -0 -1.27179e-14 1.60033e-28 0 -0 0 0)
(1 2.87366e-15 -0 2.8907e-15 8.30687e-30 -0 -0 -0 0)
(1 -6.01433e-16 -0 -6.24654e-16 3.75688e-31 0 -0 0 0)
(1 1.94548e-16 -0 1.49101e-16 2.90073e-32 -0 -0 -0 0)
(1 -3.44246e-18 -0 1.95682e-17 -6.73625e-35 -0 -0 0 0)
(1 7.556e-18 -0 1.64333e-16 1.2417e-33 -0 -0 -0 0)
(1 3.57336e-17 -0 9.49244e-17 3.392e-33 -0 -0 -0 0)
(1 3.67527e-17 -0 5.80937e-17 2.1351e-33 -0 -0 -0 0)
(1 4.48128e-17 -0 1.07773e-16 4.82959e-33 -0 -0 -0 0)
(1 1.73163e-17 -0 -7.91024e-19 -1.36976e-35 0 -0 -0 0)
(1 -2.1089e-18 -0 -2.46877e-17 5.20639e-35 0 -0 0 0)
(1 5.04649e-17 -0 3.80351e-17 1.91943e-33 -0 -0 -0 0)
(1 1.37117e-16 -0 7.07942e-17 9.70709e-33 -0 -0 -0 0)
(1 1.18303e-16 -0 5.46471e-17 6.4649e-33 -0 -0 -0 0)
(1 5.33653e-17 -0 -3.88885e-17 -2.07529e-33 0 -0 -0 0)
(1 2.19933e-17 -0 -9.74847e-18 -2.14401e-34 0 -0 -0 0)
(1 3.38029e-17 -0 1.01842e-16 3.44256e-33 -0 -0 -0 0)
(1 8.3836e-17 -0 2.05084e-16 1.71934e-32 -0 -0 -0 0)
(1 8.61462e-17 -0 1.46666e-16 1.26347e-32 -0 -0 -0 0)
(1 -7.68636e-14 -0 -7.74292e-14 5.95149e-27 0 -0 0 0)
(1 1.6641e-14 -0 1.66138e-14 2.7647e-28 -0 -0 -0 0)
(1 -3.71579e-15 -0 -3.86535e-15 1.43628e-29 0 -0 0 0)
(1 8.36478e-16 -0 7.62553e-16 6.37859e-31 -0 -0 -0 0)
(1 -2.38839e-16 -0 -2.63215e-16 6.28661e-32 0 -0 0 0)
(1 -1.36028e-16 -0 -7.6472e-17 1.04023e-32 0 -0 0 0)
(1 -1.9523e-16 -0 2.07144e-17 -4.04408e-33 -0 -0 0 0)
(1 -4.747e-18 -0 2.06283e-16 -9.79227e-34 -0 -0 0 0)
(1 1.04136e-16 -0 1.6546e-16 1.72303e-32 -0 -0 -0 0)
(1 7.70047e-17 -0 5.92826e-17 4.56504e-33 -0 -0 -0 0)
(1 -2.36228e-17 -0 2.91258e-18 -6.88033e-35 -0 -0 0 0)
(1 9.8816e-18 -0 3.62787e-17 3.58491e-34 -0 -0 -0 0)
(1 1.04069e-16 -0 7.2973e-17 7.59426e-33 -0 -0 -0 0)
(1 1.28303e-16 -0 8.67716e-17 1.11331e-32 -0 -0 -0 0)
(1 6.21292e-17 -0 1.05653e-17 6.56415e-34 -0 -0 -0 0)
(1 6.97717e-17 -0 3.384e-17 2.36107e-33 -0 -0 -0 0)
(1 5.04082e-17 -0 -3.64221e-19 -1.83597e-35 0 -0 -0 0)
(1 -1.09655e-17 -0 1.76364e-17 -1.93391e-34 -0 -0 0 0)
(1 -9.78801e-18 -0 2.81067e-17 -2.75109e-34 -0 -0 0 0)
(1 2.2968e-17 -0 5.92275e-17 1.36034e-33 -0 -0 -0 0)
(1 5.35144e-14 -0 5.35991e-14 2.86832e-27 -0 -0 -0 0)
(1 -1.129e-14 -0 -1.1468e-14 1.29473e-28 0 -0 0 0)
(1 2.59188e-15 -0 2.61127e-15 6.7681e-30 -0 -0 -0 0)
(1 -5.47998e-16 -0 -5.24248e-16 2.87287e-31 0 -0 0 0)
(1 1.18143e-16 -0 2.48489e-16 2.93571e-32 -0 -0 -0 0)
(1 -5.79763e-18 -0 1.03359e-16 -5.9924e-34 -0 -0 0 0)
(1 1.31538e-17 -0 1.10935e-16 1.45922e-33 -0 -0 -0 0)
(1 6.01796e-17 -0 1.56467e-16 9.41612e-33 -0 -0 -0 0)
(1 9.14257e-17 -0 1.19191e-16 1.08971e-32 -0 -0 -0 0)
(1 5.66595e-17 -0 7.72838e-17 4.37886e-33 -0 -0 -0 0)
(1 5.94201e-17 -0 1.66584e-16 9.89846e-33 -0 -0 -0 0)
(1 6.09921e-17 -0 4.92367e-17 3.00305e-33 -0 -0 -0 0)
(1 -3.64483e-17 -0 -1.03304e-16 3.76527e-33 0 -0 0 0)
(1 -3.75102e-17 -0 -6.02139e-17 2.25864e-33 0 -0 0 0)
(1 6.29014e-17 -0 4.58655e-18 2.885e-34 -0 -0 -0 0)
(1 5.81622e-17 -0 2.62002e-17 1.52386e-33 -0 -0 -0 0)
(1 2.32051e-17 -0 3.29538e-17 7.64694e-34 -0 -0 -0 0)
(1 -1.06776e-17 -0 5.48732e-18 -5.85916e-35 -0 -0 0 0)
(1 -1.66704e-17 -0 -3.59088e-17 5.98615e-34 0 -0 0 0)
(1 6.89768e-18 -0 2.02371e-17 1.39589e-34 -0 -0 -0 0)
(1 1.21898e-14 -0 1.19293e-14 1.45416e-28 -0 -0 -0 0)
(1 -3.02769e-15 -0 -3.03287e-15 9.18257e-30 0 -0 0 0)
(1 7.03431e-16 -0 6.50142e-16 4.57331e-31 -0 -0 -0 0)
(1 -1.98135e-16 -0 -1.18691e-16 2.35168e-32 0 -0 0 0)
(1 4.91308e-17 -0 2.62664e-16 1.29049e-32 -0 -0 -0 0)
(1 1.38512e-16 -0 3.33294e-16 4.61653e-32 -0 -0 -0 0)
(1 2.42581e-16 -0 2.83097e-16 6.86738e-32 -0 -0 -0 0)
(1 1.32585e-16 -0 9.14973e-17 1.21312e-32 -0 -0 -0 0)
(1 3.17822e-17 -0 1.92387e-17 6.1145e-34 -0 -0 -0 0)
(1 2.83203e-17 -0 5.10956e-17 1.44704e-33 -0 -0 -0 0)
(1 1.08363e-16 -0 1.12958e-16 1.22405e-32 -0 -0 -0 0)
(1 3.01063e-17 -0 -3.06358e-17 -9.22331e-34 0 -0 -0 0)
(1 -8.34335e-17 -0 -1.07379e-16 8.95902e-33 0 -0 0 0)
(1 1.23319e-17 -0 -3.96907e-17 -4.89462e-34 0 -0 -0 0)
(1 1.57533e-17 -0 -4.08815e-17 -6.44019e-34 0 -0 -0 0)
(1 -4.76379e-17 -0 -5.72402e-17 2.7268e-33 0 -0 0 0)
(1 -7.59459e-17 -0 -3.50612e-18 2.66275e-34 0 -0 0 0)
(1 -5.04291e-17 -0 -2.78998e-17 1.40696e-33 0 -0 0 0)
(1 -3.06809e-17 -0 -1.73724e-17 5.33e-34 0 -0 0 0)
(1 7.94989e-18 -0 3.11511e-17 2.47648e-34 -0 -0 -0 0)
(1 -8.19097e-14 -0 -8.23619e-14 6.74624e-27 0 -0 0 0)
(1 1.72977e-14 -0 1.73957e-14 3.00905e-28 -0 -0 -0 0)
(1 -3.96023e-15 -0 -4.02426e-15 1.5937e-29 0 -0 0 0)
(1 8.52782e-16 -0 8.93556e-16 7.62008e-31 -0 -0 -0 0)
(1 -2.55862e-16 -0 -1.83101e-16 4.68485e-32 0 -0 0 0)
(1 5.14616e-18 -0 1.47602e-16 7.59581e-34 -0 -0 -0 0)
(1 1.1108e-16 -0 1.54038e-16 1.71106e-32 -0 -0 -0 0)
(1 1.5174e-16 -0 9.37697e-17 1.42286e-32 -0 -0 -0 0)
(1 8.57186e-17 -0 3.51751e-17 3.01516e-33 -0 -0 -0 0)
(1 5.77108e-17 -0 4.81051e-17 2.77618e-33 -0 -0 -0 0)
(1 7.61806e-17 -0 -2.74698e-17 -2.09267e-33 0 -0 -0 0)
(1 -2.50443e-17 -0 -7.44083e-17 1.86351e-33 0 -0 0 0)
(1 -6.6573e-17 -0 -5.95756e-17 3.96613e-33 0 -0 0 0)
(1 -6.04813e-17 -0 -9.66329e-17 5.84448e-33 0 -0 0 0)
(1 -1.26406e-16 -0 -7.60659e-17 9.61517e-33 0 -0 0 0)
(1 -9.6622e-17 -0 2.76562e-17 -2.6722e-33 -0 -0 0 0)
(1 7.09808e-18 -0 9.85812e-17 6.99737e-34 -0 -0 -0 0)
(1 5.39749e-17 -0 1.56375e-17 8.44033e-34 -0 -0 -0 0)
(1 -3.83574e-19 -0 -1.33414e-17 5.11742e-36 0 -0 0 0)
(1 -4.05876e-17 -0 -1.93514e-17 7.85429e-34 0 -0 0 0)
(1 3.50316e-14 -0 3.53687e-14 1.23902e-27 -0 -0 -0 0)
(1 -6.52438e-15 -0 -6.6452e-15 4.33558e-29 0 -0 0 0)
(1 1.58902e-15 -0 1.66803e-15 2.65053e-30 -0 -0 -0 0)
(1 -2.92369e-16 -0 -2.10947e-16 6.16743e-32 0 -0 0 0)
(1 5.69803e-17 -0 1.15867e-16 6.60214e-33 -0 -0 -0 0)
(1 1.19919e-16 -0 1.60997e-16 1.93066e-32 -0 -0 -0 0)
(1 2.48502e-16 -0 2.54795e-16 6.33171e-32 -0 -0 -0 0)
(1 2.99513e-16 -0 2.56283e-16 7.676e-32 -0 -0 -0 0)
(1 2.38291e-16 -0 1.51028e-16 3.59887e-32 -0 -0 -0 0)
(1 1.46246e-16 -0 6.68761e-17 9.78034e-33 -0 -0 -0 0)
(1 -4.14238e-17 -0 -1.02831e-16 4.25966e-33 0 -0 0 0)
(1 -1.20778e-16 -0 -5.57022e-17 6.7276e-33 0 -0 0 0)
(1 -1.73139e-17 -0 7.26618e-17 -1.25806e-33 -0 -0 0 0)
(1 1.32893e-17 -0 4.09166e-17 5.43752e-34 -0 -0 -0 0)
(1 -7.16458e-18 -0 2.3212e-17 -1.66304e-34 -0 -0 0 0)
(1 2.54725e-17 -0 6.80391e-17 1.73313e-33 -0 -0 -0 0)
(1 7.25412e-17 -0 6.1356e-17 4.45084e-33 -0 -0 -0 0)
(1 5.8909e-17 -0 3.85682e-17 2.27201e-33 -0 -0 -0 0)
(1 3.0778e-17 -0 3.43195e-17 1.05629e-33 -0 -0 -0 0)
(1 -3.17368e-17 -0 -1.76597e-17 5.60463e-34 0 -0 0 0)
(1 8.16819e-14 -0 8.16372e-14 6.66829e-27 -0 -0 -0 0)
(1 -1.73279e-14 -0 -1.74154e-14 3.01774e-28 0 -0 0 0)
(1 4.09865e-15 -0 4.13031e-15 1.69287e-29 -0 -0 -0 0)
(1 -8.92596e-16 -0 -8.21337e-16 7.33122e-31 0 -0 0 0)
(1 2.27087e-16 -0 2.60971e-16 5.92633e-32 -0 -0 -0 0)
(1 7.54721e-17 -0 3.84661e-17 2.90312e-33 -0 -0 -0 0)
(1 1.33645e-16 -0 1.00956e-16 1.34922e-32 -0 -0 -0 0)
(1 7.29314e-17 -0 6.48738e-17 4.73133e-33 -0 -0 -0 0)
(1 5.29724e-17 -0 4.4722e-17 2.36903e-33 -0 -0 -0 0)
(1 6.30163e-17 -0 3.12281e-17 1.96788e-33 -0 -0 -0 0)
(1 -2.70887e-17 -0 -3.58661e-17 9.71568e-34 0 -0 0 0)
(1 -4.86529e-17 -0 -3.30252e-19 1.60677e-35 0 -0 0 0)
(1 2.86265e-17 -0 9.00532e-17 2.57791e-33 -0 -0 -0 0)
(1 9.56998e-17 -0 1.31677e-16 1.26015e-32 -0 -0 -0 0)
(1 6.43308e-17 -0 8.64821e-17 5.56346e-33 -0 -0 -0 0)
(1 8.01476e-17 -0 7.51056e-17 6.01953e-33 -0 -0 -0 0)
(1 6.58066e-17 -0 9.16528e-18 6.03136e-34 -0 -0 -0 0)
(1 1.17133e-17 -0 1.12076e-17 1.31278e-34 -0 -0 -0 0)
(1 2.0001e-17 -0 3.34632e-17 6.69297e-34 -0 -0 -0 0)
(1 -1.15235e-19 -0 1.6995e-17 -1.95841e-36 -0 -0 0 0)
)
;

boundaryField
{
    movingWall
    {
        type            calculated;
        value           uniform (1 0 0 0 0 0 0 0 0);
    }
    fixedWalls
    {
        type            calculated;
        value           uniform (1 0 0 0 0 0 0 0 0);
    }
    frontAndBack
    {
        type            empty;
    }
}


// ************************************************************************* //
