/*--------------------------------*- C++ -*----------------------------------*\
| =========                 |                                                 |
| \\      /  F ield         | OpenFOAM: The Open Source CFD Toolbox           |
|  \\    /   O peration     | Version:  2506                                  |
|   \\  /    A nd           | Website:  www.openfoam.com                      |
|    \\/     M anipulation  |                                                 |
\*---------------------------------------------------------------------------*/
FoamFile
{
    version     2.0;
    format      ascii;
    arch        "LSB;label=32;scalar=64";
    class       volScalarField;
    location    "6";
    object      Uy;
}
// * * * * * * * * * * * * * * * * * * * * * * * * * * * * * * * * * * * * * //

dimensions      [0 1 -1 0 0 0 0];

internalField   nonuniform List<scalar> 
400
(
1.13469e-13
-2.39196e-14
5.77376e-15
-1.07289e-15
3.52114e-16
9.36058e-17
2.10178e-16
1.5899e-16
9.1092e-17
2.24009e-17
3.60209e-17
1.80601e-17
-2.19533e-17
-2.26267e-17
1.31636e-18
1.56324e-17
-8.17424e-17
-9.24492e-17
4.78785e-17
-1.65595e-17
2.95971e-14
-6.25371e-15
1.75318e-15
-2.93589e-16
-4.11044e-17
-1.08023e-16
4.22037e-17
1.31901e-16
1.77387e-16
8.64251e-17
5.30763e-17
6.47467e-18
-8.77464e-17
-5.40451e-17
6.56429e-17
1.44974e-16
4.1621e-17
-2.6124e-17
-2.24506e-17
-9.18745e-17
-1.24158e-13
2.70233e-14
-6.44834e-15
1.31454e-15
-3.78013e-16
-7.12588e-19
-7.65704e-17
-1.86063e-17
7.05119e-17
5.41094e-17
2.83464e-17
3.38257e-17
3.70311e-17
6.51131e-17
1.23783e-16
1.36953e-16
5.99693e-17
-4.77939e-17
-1.27166e-16
-1.21484e-16
7.99225e-14
-1.72045e-14
3.95356e-15
-8.17681e-16
3.80249e-16
1.55277e-16
5.16447e-17
-2.59373e-17
-3.41327e-18
5.45501e-17
2.05439e-19
2.49184e-17
1.08162e-16
8.16266e-17
-2.7278e-17
-1.07908e-16
-6.33665e-17
-1.32425e-16
-1.4479e-16
-8.16901e-17
-5.76264e-16
-3.57944e-16
1.3318e-16
-6.29103e-17
2.50683e-17
4.19859e-17
-2.72026e-17
-3.62705e-17
-3.31687e-17
6.90138e-17
3.11153e-17
9.95392e-17
9.71058e-17
-1.33914e-17
-1.10074e-16
-1.74507e-16
-9.26508e-17
-6.81578e-17
-8.12932e-17
-1.1196e-17
-6.82279e-14
1.45246e-14
-3.42708e-15
6.33403e-16
-2.32823e-16
-7.99999e-18
-2.00551e-17
-5.67703e-18
-8.98474e-17
-7.97372e-17
8.20185e-17
2.67296e-16
2.57886e-16
3.46311e-17
-7.04202e-17
-1.07643e-16
-1.39412e-16
-6.61489e-17
2.9968e-17
2.26039e-17
8.52667e-14
-1.71965e-14
4.19015e-15
-7.85684e-16
2.4382e-16
-5.44845e-18
2.37522e-17
1.27476e-16
2.15876e-16
1.81721e-16
2.03972e-16
4.9678e-17
-8.74076e-17
-1.52699e-16
-9.46917e-17
4.71268e-17
1.04751e-16
1.08068e-16
3.94167e-17
-4.50733e-18
-2.63665e-14
5.49783e-15
-1.08336e-15
3.79165e-16
8.71208e-17
7.8392e-17
6.85901e-17
1.11135e-16
1.65546e-16
1.18483e-16
-3.25736e-17
-2.56961e-16
-2.18315e-16
-8.64299e-18
2.65698e-17
5.41567e-17
4.68174e-17
2.5578e-17
4.87018e-17
7.12889e-18
-4.4527e-14
9.14906e-15
-2.08595e-15
5.68512e-16
-2.7804e-17
5.55128e-17
7.46523e-17
2.55786e-17
-5.71014e-17
-6.41356e-17
-1.54577e-16
-1.02738e-16
2.17025e-17
1.30817e-16
9.69644e-17
5.40637e-17
-4.03419e-18
4.97446e-18
7.56494e-17
1.97262e-17
7.07973e-14
-1.45496e-14
3.32919e-15
-5.80914e-16
2.732e-16
1.9897e-16
1.94005e-16
1.48534e-17
-6.38026e-17
2.34814e-17
-7.0752e-18
-1.0362e-16
-1.35821e-16
-1.35083e-16
2.80387e-18
1.07659e-16
1.1543e-16
2.47823e-17
-4.12114e-17
-1.25386e-17
-6.537e-14
1.37468e-14
-3.06774e-15
7.7883e-16
-2.07168e-17
7.81842e-17
3.81377e-17
2.60104e-17
5.57362e-17
9.94144e-17
1.07978e-16
-6.14162e-17
-7.67105e-17
6.17855e-17
1.69948e-16
6.6211e-17
-2.46449e-17
-4.7513e-17
-2.34647e-17
-9.27109e-19
3.50588e-14
-7.25319e-15
1.89468e-15
-2.89287e-16
6.9531e-17
-6.23787e-17
3.58458e-17
3.74294e-17
3.13057e-17
-1.56967e-17
-4.17951e-17
-1.82899e-17
-1.51745e-17
8.82711e-17
1.37979e-16
3.0665e-17
-7.66946e-18
8.0758e-17
8.92907e-17
6.28098e-17
1.42646e-14
-2.66609e-15
7.87928e-16
-2.09315e-16
-2.14685e-17
9.54956e-17
1.52603e-16
1.20672e-16
-4.90816e-17
-2.60737e-16
-2.85396e-16
-1.14813e-16
1.27968e-17
-2.04439e-17
-1.29492e-16
-7.00691e-17
-4.12943e-17
-5.62172e-17
-1.16459e-16
-5.06362e-17
-6.00289e-14
1.27179e-14
-2.8907e-15
6.24654e-16
-1.49101e-16
-1.95682e-17
-1.64333e-16
-9.49244e-17
-5.80937e-17
-1.07773e-16
7.91024e-19
2.46877e-17
-3.80351e-17
-7.07942e-17
-5.46471e-17
3.88885e-17
9.74847e-18
-1.01842e-16
-2.05084e-16
-1.46666e-16
7.74292e-14
-1.66138e-14
3.86535e-15
-7.62553e-16
2.63215e-16
7.6472e-17
-2.07144e-17
-2.06283e-16
-1.6546e-16
-5.92826e-17
-2.91258e-18
-3.62787e-17
-7.2973e-17
-8.67716e-17
-1.05653e-17
-3.384e-17
3.64221e-19
-1.76364e-17
-2.81067e-17
-5.92275e-17
-5.35991e-14
1.1468e-14
-2.61127e-15
5.24248e-16
-2.48489e-16
-1.03359e-16
-1.10935e-16
-1.56467e-16
-1.19191e-16
-7.72838e-17
-1.66584e-16
-4.92367e-17
1.03304e-16
6.02139e-17
-4.58655e-18
-2.62002e-17
-3.29538e-17
-5.48732e-18
3.59088e-17
-2.02371e-17
-1.19293e-14
3.03287e-15
-6.50142e-16
1.18691e-16
-2.62664e-16
-3.33294e-16
-2.83097e-16
-9.14973e-17
-1.92387e-17
-5.10956e-17
-1.12958e-16
3.06358e-17
1.07379e-16
3.96907e-17
4.08815e-17
5.72402e-17
3.50612e-18
2.78998e-17
1.73724e-17
-3.11511e-17
8.23619e-14
-1.73957e-14
4.02426e-15
-8.93556e-16
1.83101e-16
-1.47602e-16
-1.54038e-16
-9.37697e-17
-3.51751e-17
-4.81051e-17
2.74698e-17
7.44083e-17
5.95756e-17
9.66329e-17
7.60659e-17
-2.76562e-17
-9.85812e-17
-1.56375e-17
1.33414e-17
1.93514e-17
-3.53687e-14
6.6452e-15
-1.66803e-15
2.10947e-16
-1.15867e-16
-1.60997e-16
-2.54795e-16
-2.56283e-16
-1.51028e-16
-6.68761e-17
1.02831e-16
5.57022e-17
-7.26618e-17
-4.09166e-17
-2.3212e-17
-6.80391e-17
-6.1356e-17
-3.85682e-17
-3.43195e-17
1.76597e-17
-8.16372e-14
1.74154e-14
-4.13031e-15
8.21337e-16
-2.60971e-16
-3.84661e-17
-1.00956e-16
-6.48738e-17
-4.4722e-17
-3.12281e-17
3.58661e-17
3.30252e-19
-9.00532e-17
-1.31677e-16
-8.64821e-17
-7.51056e-17
-9.16528e-18
-1.12076e-17
-3.34632e-17
-1.6995e-17
)
;

boundaryField
{
    movingWall
    {
        type            calculated;
        value           uniform -0;
    }
    fixedWalls
    {
        type            calculated;
        value           uniform -0;
    }
    frontAndBack
    {
        type            empty;
    }
}


// ************************************************************************* //
