/*--------------------------------*- C++ -*----------------------------------*\
| =========                 |                                                 |
| \\      /  F ield         | OpenFOAM: The Open Source CFD Toolbox           |
|  \\    /   O peration     | Version:  2506                                  |
|   \\  /    A nd           | Website:  www.openfoam.com                      |
|    \\/     M anipulation  |                                                 |
\*---------------------------------------------------------------------------*/
FoamFile
{
    version     2.0;
    format      ascii;
    arch        "LSB;label=32;scalar=64";
    class       volVectorField;
    location    "6";
    object      vorticityField;
}
// * * * * * * * * * * * * * * * * * * * * * * * * * * * * * * * * * * * * * //

dimensions      [0 0 -1 0 0 0 0];

internalField   nonuniform List<vector> 
400
(
(0 -0 8.11473e-12)
(0 -0 -1.05527e-11)
(0 -0 2.25756e-12)
(0 -0 -5.1506e-13)
(0 -0 3.53349e-14)
(0 -0 -4.12986e-14)
(0 -0 -4.76717e-14)
(0 -0 -3.90137e-14)
(0 -0 -4.07639e-14)
(0 -0 -5.5071e-15)
(0 -0 -2.75391e-14)
(0 -0 -5.79743e-15)
(0 -0 -5.82788e-14)
(0 -0 5.65371e-14)
(0 -0 -2.32791e-14)
(0 -0 -8.30587e-15)
(0 -0 -1.08082e-14)
(0 -0 1.29621e-14)
(0 -0 7.58897e-15)
(0 -0 -3.1319e-15)
(0 -0 1.27724e-12)
(0 -0 -2.40492e-12)
(0 -0 6.77327e-13)
(0 -0 -1.79428e-13)
(0 -0 1.26977e-13)
(0 -0 8.9646e-14)
(0 -0 1.32413e-13)
(0 -0 4.06234e-14)
(0 -0 -4.5476e-15)
(0 -0 -1.24311e-14)
(0 -0 1.911e-14)
(0 -0 -1.40823e-14)
(0 -0 4.81581e-14)
(0 -0 1.53389e-14)
(0 -0 4.7007e-14)
(0 -0 5.18079e-14)
(0 -0 -1.71098e-14)
(0 -0 -6.40715e-15)
(0 -0 -6.57506e-15)
(0 -0 1.14325e-14)
(0 -0 -5.72907e-12)
(0 -0 1.06326e-11)
(0 -0 -2.54377e-12)
(0 -0 5.25717e-13)
(0 -0 -1.31525e-13)
(0 -0 5.72493e-14)
(0 -0 2.53157e-14)
(0 -0 9.60234e-14)
(0 -0 1.15692e-13)
(0 -0 4.99936e-14)
(0 -0 7.92868e-14)
(0 -0 5.50786e-14)
(0 -0 8.44439e-14)
(0 -0 3.57803e-14)
(0 -0 8.84992e-14)
(0 -0 2.07237e-14)
(0 -0 3.57354e-14)
(0 -0 3.54966e-14)
(0 -0 -3.44741e-14)
(0 -0 -2.24005e-15)
(0 -0 4.97076e-12)
(0 -0 -7.16322e-12)
(0 -0 1.69289e-12)
(0 -0 -3.30226e-13)
(0 -0 4.30857e-14)
(0 -0 -1.14176e-13)
(0 -0 -9.94366e-14)
(0 -0 -8.6821e-14)
(0 -0 -7.32664e-14)
(0 -0 -1.08058e-13)
(0 -0 -8.42783e-14)
(0 -0 1.07956e-14)
(0 -0 -7.56444e-14)
(0 -0 -4.0649e-14)
(0 -0 -1.00269e-13)
(0 -0 -3.07139e-14)
(0 -0 -8.37669e-14)
(0 -0 -8.94575e-14)
(0 -0 5.07346e-15)
(0 -0 2.2648e-14)
(0 -0 -2.1534e-12)
(0 -0 5.04625e-13)
(0 -0 -1.87337e-13)
(0 -0 -3.79163e-14)
(0 -0 -7.08255e-14)
(0 -0 -5.94372e-14)
(0 -0 -8.91408e-14)
(0 -0 -5.48067e-14)
(0 -0 -4.36817e-14)
(0 -0 -2.06766e-14)
(0 -0 -5.11576e-14)
(0 -0 -1.01821e-13)
(0 -0 -6.55032e-14)
(0 -0 -1.29138e-13)
(0 -0 -7.03217e-14)
(0 -0 -7.95729e-14)
(0 -0 3.774e-14)
(0 -0 1.13576e-15)
(0 -0 5.69619e-15)
(0 -0 3.6354e-14)
(0 -0 -4.1777e-12)
(0 -0 5.99219e-12)
(0 -0 -1.49754e-12)
(0 -0 2.9232e-13)
(0 -0 -3.70353e-14)
(0 -0 2.12768e-14)
(0 -0 2.73374e-14)
(0 -0 -6.97923e-15)
(0 -0 4.68041e-14)
(0 -0 7.13967e-14)
(0 -0 1.43124e-13)
(0 -0 1.26007e-13)
(0 -0 -2.32665e-14)
(0 -0 -3.28306e-14)
(0 -0 -1.42274e-14)
(0 -0 -3.40042e-14)
(0 -0 -5.00607e-14)
(0 -0 4.40431e-14)
(0 -0 3.59803e-14)
(0 -0 -5.25719e-15)
(0 -0 7.18649e-12)
(0 -0 -7.94503e-12)
(0 -0 1.91213e-12)
(0 -0 -3.40423e-13)
(0 -0 1.86444e-13)
(0 -0 8.64135e-14)
(0 -0 1.21713e-13)
(0 -0 1.27633e-13)
(0 -0 8.67397e-14)
(0 -0 8.01248e-14)
(0 -0 -1.32043e-14)
(0 -0 -2.9138e-14)
(0 -0 -2.02377e-14)
(0 -0 2.63766e-14)
(0 -0 7.41926e-14)
(0 -0 7.41544e-14)
(0 -0 6.03042e-14)
(0 -0 4.76767e-14)
(0 -0 -1.12575e-14)
(0 -0 -3.0596e-14)
(0 -0 -2.62897e-12)
(0 -0 2.63673e-12)
(0 -0 -5.93181e-13)
(0 -0 1.17048e-13)
(0 -0 -3.00773e-14)
(0 -0 -1.85306e-15)
(0 -0 3.27432e-15)
(0 -0 9.69555e-15)
(0 -0 -2.63702e-14)
(0 -0 -7.4022e-14)
(0 -0 -1.45965e-13)
(0 -0 -9.98893e-14)
(0 -0 5.19369e-14)
(0 -0 5.15935e-14)
(0 -0 6.27997e-15)
(0 -0 2.02476e-15)
(0 -0 5.13522e-14)
(0 -0 -5.40217e-14)
(0 -0 -1.84491e-15)
(0 -0 2.1522e-14)
(0 -0 -3.72753e-12)
(0 -0 4.16279e-12)
(0 -0 -9.9358e-13)
(0 -0 2.05815e-13)
(0 -0 -1.5972e-13)
(0 -0 -9.81746e-14)
(0 -0 -5.72035e-14)
(0 -0 -1.21596e-13)
(0 -0 -1.17392e-13)
(0 -0 -3.68527e-14)
(0 -0 2.32448e-14)
(0 -0 9.89431e-14)
(0 -0 5.04606e-14)
(0 -0 7.52619e-15)
(0 -0 -7.67537e-15)
(0 -0 -1.00999e-14)
(0 -0 -5.9119e-14)
(0 -0 7.96836e-15)
(0 -0 -2.56299e-14)
(0 -0 -9.53756e-15)
(0 -0 6.8174e-12)
(0 -0 -6.93655e-12)
(0 -0 1.58661e-12)
(0 -0 -3.59809e-13)
(0 -0 7.79884e-14)
(0 -0 -7.91947e-15)
(0 -0 -7.26218e-14)
(0 -0 -5.28859e-14)
(0 -0 -2.62423e-14)
(0 -0 5.67274e-15)
(0 -0 -1.27102e-14)
(0 -0 -6.70847e-14)
(0 -0 -5.73564e-14)
(0 -0 -1.32426e-14)
(0 -0 7.84844e-14)
(0 -0 6.54727e-14)
(0 -0 -8.2877e-15)
(0 -0 -1.56642e-14)
(0 -0 -3.73209e-15)
(0 -0 5.375e-15)
(0 -0 -6.24651e-12)
(0 -0 6.39285e-12)
(0 -0 -1.35101e-12)
(0 -0 4.40227e-13)
(0 -0 -4.29596e-14)
(0 -0 6.00956e-14)
(0 -0 4.89927e-14)
(0 -0 1.37285e-13)
(0 -0 1.42866e-13)
(0 -0 8.65393e-14)
(0 -0 1.1022e-14)
(0 -0 -4.55739e-14)
(0 -0 3.94252e-14)
(0 -0 1.05981e-13)
(0 -0 -5.37676e-14)
(0 -0 -7.36694e-14)
(0 -0 -3.84775e-14)
(0 -0 1.18016e-16)
(0 -0 3.17636e-14)
(0 -0 -2.46659e-14)
(0 -0 3.37688e-12)
(0 -0 -3.2351e-12)
(0 -0 7.77705e-13)
(0 -0 -7.40948e-14)
(0 -0 1.31111e-13)
(0 -0 7.79466e-14)
(0 -0 9.1296e-14)
(0 -0 2.6651e-14)
(0 -0 7.60026e-14)
(0 -0 7.40051e-14)
(0 -0 8.10558e-14)
(0 -0 1.11082e-13)
(0 -0 9.19713e-14)
(0 -0 9.66305e-14)
(0 -0 7.55546e-14)
(0 -0 6.67503e-14)
(0 -0 8.63245e-14)
(0 -0 6.39061e-14)
(0 -0 5.24153e-14)
(0 -0 -1.52101e-14)
(0 -0 1.64774e-12)
(0 -0 -1.42898e-12)
(0 -0 2.45678e-13)
(0 -0 -2.16465e-13)
(0 -0 3.0481e-14)
(0 -0 1.74071e-14)
(0 -0 2.51768e-15)
(0 -0 -1.01484e-13)
(0 -0 -1.73666e-13)
(0 -0 -1.59157e-13)
(0 -0 -9.38278e-14)
(0 -0 2.71423e-15)
(0 -0 9.43694e-15)
(0 -0 -9.5544e-14)
(0 -0 -8.62777e-14)
(0 -0 -7.24954e-14)
(0 -0 -5.28249e-14)
(0 -0 -8.88316e-14)
(0 -0 5.58108e-16)
(0 -0 1.67095e-14)
(0 -0 -5.59847e-12)
(0 -0 5.71382e-12)
(0 -0 -1.34485e-12)
(0 -0 2.19949e-13)
(0 -0 -1.99947e-13)
(0 -0 -8.28383e-14)
(0 -0 -1.15956e-13)
(0 -0 -1.64812e-14)
(0 -0 -2.83899e-14)
(0 -0 5.88847e-15)
(0 -0 -1.3859e-14)
(0 -0 -5.80927e-14)
(0 -0 -6.37583e-14)
(0 -0 -5.58713e-14)
(0 -0 -4.32418e-14)
(0 -0 -4.77706e-14)
(0 -0 -6.82832e-14)
(0 -0 -4.85883e-14)
(0 -0 -8.57976e-14)
(0 -0 3.5175e-14)
(0 -0 5.8647e-12)
(0 -0 -7.13955e-12)
(0 -0 1.69354e-12)
(0 -0 -3.60213e-13)
(0 -0 1.38113e-13)
(0 -0 -2.8393e-14)
(0 -0 -5.53806e-14)
(0 -0 -4.15796e-14)
(0 -0 1.47001e-14)
(0 -0 1.62547e-14)
(0 -0 2.30039e-15)
(0 -0 -6.12162e-14)
(0 -0 -5.92594e-14)
(0 -0 6.24077e-15)
(0 -0 5.95033e-14)
(0 -0 2.8198e-14)
(0 -0 2.87254e-14)
(0 -0 5.1363e-14)
(0 -0 2.29459e-14)
(0 -0 3.58385e-14)
(0 -0 -3.88785e-12)
(0 -0 4.85483e-12)
(0 -0 -1.20279e-12)
(0 -0 2.36278e-13)
(0 -0 -6.27607e-14)
(0 -0 1.37554e-14)
(0 -0 -5.31077e-15)
(0 -0 -8.25568e-16)
(0 -0 -1.91867e-14)
(0 -0 -5.89495e-14)
(0 -0 2.8047e-15)
(0 -0 2.69889e-14)
(0 -0 6.51552e-14)
(0 -0 -1.07891e-14)
(0 -0 -8.64142e-15)
(0 -0 2.42683e-14)
(0 -0 2.91763e-14)
(0 -0 -2.02188e-14)
(0 -0 -1.47498e-15)
(0 -0 -1.56717e-15)
(0 -0 8.99293e-13)
(0 -0 6.94232e-13)
(0 -0 -1.82998e-13)
(0 -0 -1.54623e-14)
(0 -0 -7.23035e-14)
(0 -0 -2.91483e-14)
(0 -0 7.83898e-14)
(0 -0 8.05959e-14)
(0 -0 5.82503e-14)
(0 -0 -9.37196e-15)
(0 -0 6.23832e-14)
(0 -0 7.62439e-14)
(0 -0 9.05498e-16)
(0 -0 -6.64977e-15)
(0 -0 1.75494e-15)
(0 -0 -3.73753e-15)
(0 -0 -2.93403e-15)
(0 -0 2.84917e-14)
(0 -0 -5.9051e-15)
(0 -0 1.37788e-15)
(0 -0 3.51507e-12)
(0 -0 -6.9393e-12)
(0 -0 1.67732e-12)
(0 -0 -2.75696e-13)
(0 -0 1.83016e-13)
(0 -0 4.76013e-14)
(0 -0 5.95933e-14)
(0 -0 9.32015e-14)
(0 -0 8.58816e-14)
(0 -0 6.04746e-14)
(0 -0 1.22513e-14)
(0 -0 5.74207e-14)
(0 -0 5.64326e-14)
(0 -0 1.64903e-15)
(0 -0 -1.24289e-14)
(0 -0 -4.45698e-14)
(0 -0 1.20187e-15)
(0 -0 6.54024e-14)
(0 -0 3.49889e-15)
(0 -0 -3.26929e-15)
(0 -0 -3.06209e-12)
(0 -0 3.18033e-12)
(0 -0 -9.14475e-13)
(0 -0 4.6796e-14)
(0 -0 -1.7272e-13)
(0 -0 -1.49418e-13)
(0 -0 -1.17949e-13)
(0 -0 -1.25149e-13)
(0 -0 -8.94795e-14)
(0 -0 -1.71909e-15)
(0 -0 -1.48472e-14)
(0 -0 -7.17594e-14)
(0 -0 -6.3872e-14)
(0 -0 4.94498e-15)
(0 -0 -2.71225e-15)
(0 -0 -3.09194e-14)
(0 -0 2.94709e-15)
(0 -0 -5.15065e-14)
(0 -0 -2.14823e-14)
(0 -0 -2.54391e-14)
(0 -0 -5.03982e-12)
(0 -0 7.53385e-12)
(0 -0 -1.46968e-12)
(0 -0 4.41144e-13)
(0 -0 -3.17702e-14)
(0 -0 9.73167e-14)
(0 -0 5.15693e-14)
(0 -0 5.98335e-14)
(0 -0 3.04696e-14)
(0 -0 3.51639e-14)
(0 -0 3.02609e-14)
(0 -0 -1.25919e-14)
(0 -0 -1.32007e-14)
(0 -0 3.57103e-16)
(0 -0 5.65714e-15)
(0 -0 6.19418e-14)
(0 -0 6.3898e-15)
(0 -0 -2.4298e-15)
(0 -0 2.65263e-14)
(0 -0 3.21509e-14)
)
;

boundaryField
{
    movingWall
    {
        type            calculated;
        value           nonuniform List<vector> 
20
(
(0 -0 -9.35317e-12)
(0 -0 8.94974e-12)
(0 -0 -1.1265e-12)
(0 -0 7.86614e-13)
(0 -0 3.137e-13)
(0 -0 4.15682e-13)
(0 -0 2.63813e-13)
(0 -0 2.72077e-13)
(0 -0 1.36591e-13)
(0 -0 1.85694e-13)
(0 -0 9.19737e-14)
(0 -0 1.65044e-13)
(0 -0 1.64435e-13)
(0 -0 8.91749e-14)
(0 -0 5.00661e-14)
(0 -0 9.65495e-14)
(0 -0 6.3898e-15)
(0 -0 -2.4298e-15)
(0 -0 4.38302e-14)
(0 -0 4.94547e-14)
)
;
    }
    fixedWalls
    {
        type            calculated;
        value           nonuniform List<vector> 
60
(
(0 -0 4.45475e-11)
(0 -0 1.07817e-11)
(0 -0 -4.56789e-11)
(0 -0 3.0668e-11)
(0 -0 -2.29049e-12)
(0 -0 -2.60985e-11)
(0 -0 3.44862e-11)
(0 -0 -1.10887e-11)
(0 -0 -1.80005e-11)
(0 -0 2.95116e-11)
(0 -0 -2.72322e-11)
(0 -0 1.46198e-11)
(0 -0 6.19371e-12)
(0 -0 -2.48789e-11)
(0 -0 3.07548e-11)
(0 -0 -2.11144e-11)
(0 -0 -2.98278e-12)
(0 -0 2.99632e-11)
(0 -0 -1.43372e-11)
(0 -0 -3.12725e-11)
(0 -0 6.6238e-15)
(0 -0 3.67498e-14)
(0 -0 2.14886e-14)
(0 -0 3.2676e-14)
(0 -0 3.15834e-14)
(0 -0 -9.04156e-15)
(0 -0 -2.53021e-14)
(0 -0 2.42535e-14)
(0 -0 -7.89049e-15)
(0 -0 5.01542e-15)
(0 -0 -2.67342e-14)
(0 -0 -2.51239e-14)
(0 -0 2.02545e-14)
(0 -0 5.86665e-14)
(0 -0 5.07961e-14)
(0 -0 8.09485e-15)
(0 -0 1.24605e-14)
(0 -0 -7.74057e-15)
(0 -0 -3.41689e-14)
(0 -0 3.3903e-14)
(0 -0 1.41064e-11)
(0 -0 -1.25459e-11)
(0 -0 2.01822e-12)
(0 -0 -6.75391e-13)
(0 -0 -1.94212e-13)
(0 -0 -1.91829e-13)
(0 -0 -1.26688e-13)
(0 -0 -5.63176e-14)
(0 -0 -1.36589e-14)
(0 -0 8.33107e-14)
(0 -0 -4.34083e-16)
(0 -0 8.30204e-14)
(0 -0 -4.06867e-15)
(0 -0 9.11448e-14)
(0 -0 3.82591e-15)
(0 -0 -8.30587e-15)
(0 -0 1.66828e-13)
(0 -0 1.29621e-14)
(0 -0 -3.682e-14)
(0 -0 -3.1319e-15)
)
;
    }
    frontAndBack
    {
        type            empty;
    }
}


// ************************************************************************* //
