/*--------------------------------*- C++ -*----------------------------------*\
| =========                 |                                                 |
| \\      /  F ield         | OpenFOAM: The Open Source CFD Toolbox           |
|  \\    /   O peration     | Version:  2506                                  |
|   \\  /    A nd           | Website:  www.openfoam.com                      |
|    \\/     M anipulation  |                                                 |
\*---------------------------------------------------------------------------*/
FoamFile
{
    version     2.0;
    format      ascii;
    arch        "LSB;label=32;scalar=64";
    class       volVectorField;
    location    "6";
    object      wallShearStress;
}
// * * * * * * * * * * * * * * * * * * * * * * * * * * * * * * * * * * * * * //

dimensions      [0 2 -2 0 0 0 0];

internalField   uniform (0 0 0);

boundaryField
{
    movingWall
    {
        type            calculated;
        value           uniform (0 0 0);
    }
    fixedWalls
    {
        type            calculated;
        value           nonuniform List<vector> 
60
(
(1.64064e-16 -4.6228e-16 0)
(-2.72105e-16 -1.28959e-16 0)
(4.53927e-17 5.36478e-16 0)
(1.8068e-16 -3.32701e-16 0)
(-1.5561e-16 -1.82948e-17 0)
(4.59784e-17 2.84838e-16 0)
(3.5013e-17 -3.37272e-16 0)
(-7.70552e-17 1.00045e-16 0)
(4.22754e-17 1.76211e-16 0)
(-1.44874e-17 -2.71263e-16 0)
(1.76226e-17 2.50638e-16 0)
(-6.71434e-18 -1.34272e-16 0)
(1.12151e-17 -5.21793e-17 0)
(7.76688e-18 2.31442e-16 0)
(3.27083e-17 -3.11885e-16 0)
(-1.05758e-16 2.17649e-16 0)
(1.3801e-16 6.56064e-17 0)
(3.29275e-17 -3.59263e-16 0)
(-2.22428e-16 1.39577e-16 0)
(1.17084e-16 3.40373e-16 0)
(7.22893e-20 6.6238e-20 0)
(1.25419e-18 3.67498e-19 0)
(-5.98909e-19 7.56987e-19 0)
(-6.65644e-19 3.2676e-19 0)
(-6.61648e-19 -2.26267e-19 0)
(-4.45909e-21 -9.04156e-20 0)
(-5.81802e-19 2.8908e-19 0)
(-1.61557e-20 -2.99566e-19 0)
(1.31116e-20 -7.89049e-20 0)
(1.37689e-20 5.01542e-20 0)
(-6.42351e-19 2.74759e-19 0)
(-5.5898e-19 -2.51239e-19 0)
(1.39651e-19 2.02545e-19 0)
(-5.86391e-19 5.86665e-19 0)
(-6.76405e-19 -3.41405e-20 0)
(-1.87176e-20 8.09485e-20 0)
(-2.63924e-20 1.24605e-19 0)
(-6.2466e-19 -7.74057e-20 0)
(2.42309e-20 2.00412e-19 0)
(-5.91676e-19 -2.03071e-19 0)
(-3.80355e-17 -6.10772e-16 0)
(8.99321e-17 1.36606e-16 0)
(-2.55112e-17 -3.36846e-17 0)
(4.08938e-18 5.9028e-18 0)
(-4.27512e-18 -1.87794e-18 0)
(-1.63442e-18 -6.79931e-19 0)
(-1.39765e-18 -1.30165e-18 0)
(-3.25003e-19 -1.02865e-18 0)
(1.36589e-19 -6.66524e-19 0)
(9.43249e-19 -4.80872e-19 0)
(4.34083e-21 1.69289e-19 0)
(9.46153e-19 -9.63203e-20 0)
(4.06867e-20 -2.44316e-19 0)
(8.64909e-19 4.82076e-19 0)
(-3.82591e-20 -7.02056e-21 0)
(8.30587e-20 -4.44774e-19 0)
(1.88444e-18 4.35959e-19 0)
(-1.29621e-19 8.54463e-19 0)
(-5.19979e-19 -2.55352e-19 0)
(3.1319e-20 8.83173e-20 0)
)
;
    }
    frontAndBack
    {
        type            empty;
    }
}


// ************************************************************************* //
