/*--------------------------------*- C++ -*----------------------------------*\
| =========                 |                                                 |
| \\      /  F ield         | OpenFOAM: The Open Source CFD Toolbox           |
|  \\    /   O peration     | Version:  2506                                  |
|   \\  /    A nd           | Website:  www.openfoam.com                      |
|    \\/     M anipulation  |                                                 |
\*---------------------------------------------------------------------------*/
FoamFile
{
    version     2.0;
    format      ascii;
    arch        "LSB;label=32;scalar=64";
    class       volScalarField;
    location    "6";
    object      yPlus;
}
// * * * * * * * * * * * * * * * * * * * * * * * * * * * * * * * * * * * * * //

dimensions      [0 0 0 0 0 0 0];

internalField   uniform 0;

boundaryField
{
    movingWall
    {
        type            calculated;
        value           nonuniform List<scalar> 
20
(
4.52674e-06
2.10188e-06
1.04162e-06
5.68648e-07
5.08114e-07
4.99985e-07
4.10408e-07
4.09049e-07
2.89852e-07
3.33611e-07
2.3713e-07
3.332e-07
3.36574e-07
2.54043e-07
1.8757e-07
2.42076e-07
4.78677e-08
5.2933e-08
1.70261e-07
1.67568e-07
)
;
    }
    fixedWalls
    {
        type            calculated;
        value           nonuniform List<scalar> 
60
(
5.34317e-06
3.0197e-06
5.57176e-06
4.52824e-06
1.63353e-06
4.13099e-06
4.61728e-06
2.57032e-06
3.34389e-06
4.20706e-06
4.05679e-06
3.0335e-06
2.2349e-06
3.88501e-06
4.40489e-06
3.68423e-06
1.92825e-06
4.55147e-06
3.21086e-06
4.52674e-06
6.43418e-08
2.45103e-07
2.02838e-07
1.85632e-07
1.67022e-07
7.5173e-08
1.66669e-07
4.22164e-08
7.0225e-08
5.59879e-08
1.66603e-07
1.78576e-07
1.12512e-07
2.14446e-07
1.77364e-07
7.11286e-08
8.82484e-08
1.67851e-07
6.64449e-08
1.67568e-07
5.34317e-06
2.46619e-06
1.20541e-06
5.29954e-07
4.61845e-07
3.36841e-07
3.13783e-07
2.2018e-07
1.50907e-07
2.36205e-07
9.48959e-08
2.35997e-07
7.40833e-08
2.36217e-07
1.81408e-08
6.25149e-08
3.35987e-07
1.52027e-07
1.73858e-07
6.43418e-08
)
;
    }
    frontAndBack
    {
        type            empty;
    }
}


// ************************************************************************* //
