/*--------------------------------*- C++ -*----------------------------------*\
| =========                 |                                                 |
| \\      /  F ield         | OpenFOAM: The Open Source CFD Toolbox           |
|  \\    /   O peration     | Version:  2506                                  |
|   \\  /    A nd           | Website:  www.openfoam.com                      |
|    \\/     M anipulation  |                                                 |
\*---------------------------------------------------------------------------*/
FoamFile
{
    version     2.0;
    format      ascii;
    arch        "LSB;label=32;scalar=64";
    class       volScalarField;
    location    "0.1";
    object      p;
}
// * * * * * * * * * * * * * * * * * * * * * * * * * * * * * * * * * * * * * //

dimensions      [0 2 -2 0 0 0 0];

internalField   nonuniform List<scalar> 
400
(
-1.05965e-07
-0.00573264
-0.0127372
-0.0180606
-0.0199854
-0.0177507
-0.0113007
-0.00107604
0.0121381
0.0273155
0.0432659
0.0587077
0.0723533
0.0830162
0.0897481
0.0920077
0.0898632
0.08421
0.0769749
0.0712479
0.00568131
-0.000215576
-0.00569387
-0.00933574
-0.0103195
-0.00811457
-0.00264998
0.00576144
0.0165291
0.0288573
0.0418066
0.0543585
0.0654926
0.0742792
0.07999
0.0822255
0.0810615
0.077135
0.071455
0.0655854
0.0131074
0.00494149
-0.000978304
-0.00431982
-0.00510354
-0.00305323
0.00182808
0.00924377
0.0186878
0.0294894
0.0408524
0.0519053
0.0617647
0.0696143
0.0747945
0.0769055
0.075936
0.0722663
0.0660875
0.0579318
0.0197975
0.0085252
0.00117578
-0.00263245
-0.00361928
-0.00173575
0.00290728
0.00996807
0.0189545
0.0292465
0.0401127
0.0507431
0.0602982
0.0679735
0.0730757
0.0751153
0.073946
0.0697233
0.0619841
0.0506317
0.0240902
0.00955539
0.000500373
-0.00398935
-0.0052358
-0.00338808
0.00133102
0.00851289
0.017648
0.02813
0.0392516
0.0502184
0.0601833
0.0682973
0.0737752
0.075987
0.0746233
0.0696321
0.0599917
0.045176
0.0247588
0.00692967
-0.0038946
-0.00906435
-0.0104491
-0.00837879
-0.00318938
0.00463103
0.0145362
0.0259101
0.0380419
0.0501218
0.061257
0.0705105
0.0769559
0.0797738
0.0784558
0.0727354
0.0610672
0.0426005
0.020738
-0.000434715
-0.0129897
-0.0186846
-0.0199359
-0.0172584
-0.0111094
-0.00206704
0.00927471
0.0222783
0.0362162
0.0502453
0.0634037
0.0746312
0.0828143
0.0868879
0.086089
0.079891
0.0661825
0.0438099
0.0109193
-0.0136936
-0.027854
-0.0337637
-0.0344481
-0.0306397
-0.0229369
-0.0120182
0.00147135
0.0168752
0.0334528
0.0503292
0.0664661
0.0806592
0.0915648
0.0978058
0.09828
0.0921048
0.0764647
0.0498383
-0.0060022
-0.0342048
-0.0497416
-0.0553658
-0.0548506
-0.0492148
-0.0392331
-0.0256967
-0.00929478
0.00931528
0.0294048
0.0500914
0.0702767
0.0886098
0.103483
0.11313
0.115992
0.110669
0.0933826
0.0620762
-0.0316677
-0.063653
-0.0801632
-0.0847184
-0.082086
-0.073689
-0.0605306
-0.0435264
-0.0233906
-0.000741926
0.0237536
0.0492607
0.0746695
0.0985103
0.118898
0.1336
0.140451
0.137288
0.118946
0.0825072
-0.0682446
-0.104215
-0.120965
-0.123198
-0.117092
-0.104656
-0.0871879
-0.0657325
-0.0409888
-0.0134693
0.0163063
0.0476429
0.0795124
0.110403
0.138181
0.160094
0.173199
0.174227
0.155963
0.114026
-0.118769
-0.158824
-0.17443
-0.172283
-0.16066
-0.142403
-0.119176
-0.0921283
-0.0618683
-0.0286955
0.00714184
0.0452292
0.0847712
0.124361
0.161727
0.19361
0.216133
0.22449
0.208416
0.160952
-0.187839
-0.231608
-0.243389
-0.233434
-0.213185
-0.186617
-0.155779
-0.121838
-0.0851674
-0.0456918
-0.00321367
0.0423258
0.090584
0.140503
0.189914
0.235203
0.271511
0.292026
0.28202
0.229951
-0.28311
-0.328634
-0.331275
-0.307784
-0.274235
-0.235947
-0.195215
-0.152984
-0.109135
-0.0629809
-0.013647
0.0396415
0.0972831
0.15893
0.222938
0.285761
0.341782
0.381871
0.385099
0.331868
-0.418478
-0.459041
-0.441855
-0.39538
-0.341755
-0.287351
-0.234166
-0.182391
-0.130978
-0.07828
-0.0224733
0.038207
0.105234
0.179437
0.260363
0.345373
0.428927
0.499918
0.529767
0.485299
-0.619814
-0.63623
-0.578311
-0.493927
-0.411023
-0.335425
-0.267475
-0.205566
-0.147015
-0.0887712
-0.0277651
0.0390086
0.114419
0.200999
0.300399
0.412344
0.533254
0.65191
0.732782
0.722208
-0.935408
-0.878176
-0.741553
-0.59787
-0.474364
-0.372607
-0.28873
-0.217501
-0.153561
-0.0919621
-0.028148
0.0422795
0.123809
0.221183
0.339284
0.482402
0.652145
0.841404
1.01522
1.09727
-1.47614
-1.20649
-0.920502
-0.691498
-0.517461
-0.387668
-0.290087
-0.213224
-0.147861
-0.0868212
-0.0240913
0.0459829
0.129446
0.233513
0.367445
0.542905
0.771411
1.05935
1.40322
1.72992
-2.53956
-1.63057
-1.0446
-0.711239
-0.496083
-0.352395
-0.254728
-0.183625
-0.126036
-0.0732954
-0.0188369
0.0433
0.119748
0.219283
0.355231
0.548291
0.82658
1.23666
1.91165
2.92405
-4.36667
-2.04475
-0.973829
-0.563629
-0.358381
-0.240668
-0.170531
-0.124013
-0.0874898
-0.0532931
-0.0162394
0.0282217
0.0852485
0.162381
0.27301
0.442596
0.718583
1.22593
2.41112
4.8485
)
;

boundaryField
{
    movingWall
    {
        type            zeroGradient;
    }
    fixedWalls
    {
        type            zeroGradient;
    }
    frontAndBack
    {
        type            empty;
    }
}


// ************************************************************************* //
