/*--------------------------------*- C++ -*----------------------------------*\
| =========                 |                                                 |
| \\      /  F ield         | OpenFOAM: The Open Source CFD Toolbox           |
|  \\    /   O peration     | Version:  2506                                  |
|   \\  /    A nd           | Website:  www.openfoam.com                      |
|    \\/     M anipulation  |                                                 |
\*---------------------------------------------------------------------------*/
FoamFile
{
    version     2.0;
    format      ascii;
    arch        "LSB;label=32;scalar=64";
    class       surfaceScalarField;
    location    "0.1";
    object      phi;
}
// * * * * * * * * * * * * * * * * * * * * * * * * * * * * * * * * * * * * * //

dimensions      [0 3 -1 0 0 0 0];

oriented        oriented;

internalField   nonuniform List<scalar> 
760
(
1.39815e-08
-1.39817e-08
-2.1982e-08
3.59645e-08
-1.12684e-07
9.07003e-08
-2.4186e-07
1.29178e-07
-3.90033e-07
1.48172e-07
-5.38801e-07
1.48769e-07
-6.72352e-07
1.33551e-07
-7.7802e-07
1.05668e-07
-8.46419e-07
6.83987e-08
-8.71487e-07
2.50679e-08
-8.50624e-07
-2.08628e-08
-7.84937e-07
-6.5687e-08
-6.79538e-07
-1.05399e-07
-5.43784e-07
-1.35753e-07
-3.91295e-07
-1.52489e-07
-2.39507e-07
-1.51788e-07
-1.08443e-07
-1.31064e-07
-1.83517e-08
-9.00912e-08
1.53926e-08
-3.37433e-08
1.53931e-08
-3.36548e-08
1.96737e-08
-1.77479e-07
1.79787e-07
-4.27006e-07
3.40227e-07
-7.5202e-07
4.54191e-07
-1.11364e-06
5.09792e-07
-1.47247e-06
5.07604e-07
-1.79299e-06
4.54068e-07
-2.04581e-06
3.58485e-07
-2.2088e-06
2.31395e-07
-2.26775e-06
8.40106e-08
-2.2168e-06
-7.18107e-08
-2.05904e-06
-2.23441e-07
-1.80695e-06
-3.57493e-07
-1.48254e-06
-4.6017e-07
-1.11686e-06
-5.18165e-07
-7.48365e-07
-5.20285e-07
-4.19403e-07
-4.60027e-07
-1.70392e-07
-3.39103e-07
-3.04491e-08
-1.73689e-07
-1.50558e-08
-9.06847e-08
1.10358e-07
-3.51159e-07
4.40263e-07
-7.52123e-07
7.41192e-07
-1.24781e-06
9.4988e-07
-1.78498e-06
1.04696e-06
-2.3104e-06
1.03302e-06
-2.77585e-06
9.19512e-07
-3.14117e-06
7.23808e-07
-3.37601e-06
4.66233e-07
-3.46081e-06
1.68814e-07
-3.38761e-06
-1.45005e-07
-3.16073e-06
-4.50326e-07
-2.79727e-06
-7.20953e-07
-2.32726e-06
-9.30184e-07
-1.79282e-06
-1.05261e-06
-1.24587e-06
-1.06723e-06
-7.43708e-07
-9.62186e-07
-3.4213e-07
-7.40681e-07
-8.61518e-08
-4.29668e-07
-1.01207e-07
-1.42893e-07
2.5325e-07
-5.17268e-07
8.14638e-07
-1.06488e-06
1.28881e-06
-1.72045e-06
1.60545e-06
-2.41622e-06
1.74273e-06
-3.0875e-06
1.70431e-06
-3.67695e-06
1.50896e-06
-4.13724e-06
1.1841e-06
-4.43275e-06
7.61743e-07
-4.54049e-06
2.76555e-07
-4.45091e-06
-2.34585e-07
-4.16865e-06
-7.32588e-07
-3.71323e-06
-1.17637e-06
-3.11939e-06
-1.52403e-06
-2.43652e-06
-1.73548e-06
-1.72656e-06
-1.77719e-06
-1.05978e-06
-1.62897e-06
-5.08187e-07
-1.29227e-06
-1.37445e-07
-8.0041e-07
-2.38652e-07
-1.90816e-07
4.44067e-07
-6.75358e-07
1.29918e-06
-1.36626e-06
1.97971e-06
-2.17642e-06
2.41561e-06
-3.02254e-06
2.58886e-06
-3.8292e-06
2.51096e-06
-4.53175e-06
2.2115e-06
-5.07799e-06
1.73035e-06
-5.42904e-06
1.1128e-06
-5.55975e-06
4.07267e-07
-5.45919e-06
-3.35148e-07
-5.1314e-06
-1.06038e-06
-4.59638e-06
-1.71139e-06
-3.89107e-06
-2.22934e-06
-3.06961e-06
-2.55693e-06
-2.20232e-06
-2.64449e-06
-1.37239e-06
-2.4589e-06
-6.70168e-07
-1.99449e-06
-1.85453e-07
-1.28512e-06
-4.24104e-07
-2.37003e-07
6.81069e-07
-8.30316e-07
1.89249e-06
-1.66333e-06
2.81272e-06
-2.62552e-06
3.3778e-06
-3.61719e-06
3.58053e-06
-4.55254e-06
3.44631e-06
-5.36103e-06
3.01999e-06
-5.98749e-06
2.3568e-06
-6.39149e-06
1.5168e-06
-6.54677e-06
5.6255e-07
-6.44112e-06
-4.408e-07
-6.07701e-06
-1.4245e-06
-5.47303e-06
-2.31537e-06
-4.66587e-06
-3.0365e-06
-3.71214e-06
-3.51066e-06
-2.68916e-06
-3.66747e-06
-1.69339e-06
-3.45467e-06
-8.35794e-07
-2.85209e-06
-2.33683e-07
-1.88724e-06
-6.57788e-07
-2.84002e-07
9.65072e-07
-9.87765e-07
2.59626e-06
-1.96361e-06
3.78857e-06
-3.07586e-06
4.49005e-06
-4.20781e-06
4.71247e-06
-5.2641e-06
4.50261e-06
-6.17019e-06
3.92607e-06
-6.87012e-06
3.05674e-06
-7.32398e-06
1.97065e-06
-7.50568e-06
7.44252e-07
-7.40193e-06
-5.44548e-07
-7.01261e-06
-1.81382e-06
-6.35276e-06
-2.97523e-06
-5.45589e-06
-3.93337e-06
-4.37809e-06
-4.58846e-06
-3.2015e-06
-4.84406e-06
-2.03556e-06
-4.62061e-06
-1.01397e-06
-3.87367e-06
-2.85854e-07
-2.61535e-06
-9.43643e-07
-3.34102e-07
1.29917e-06
-1.15281e-06
3.41496e-06
-2.27303e-06
4.90879e-06
-3.53137e-06
5.7484e-06
-4.79397e-06
5.97507e-06
-5.95774e-06
5.66638e-06
-6.94708e-06
4.91542e-06
-7.7086e-06
3.81825e-06
-8.20571e-06
2.46777e-06
-8.41442e-06
9.52961e-07
-8.3209e-06
-6.38071e-07
-7.92144e-06
-2.21328e-06
-7.22494e-06
-3.67173e-06
-6.25791e-06
-4.90039e-06
-5.07142e-06
-5.77495e-06
-3.74854e-06
-6.16695e-06
-2.40978e-06
-5.95936e-06
-1.21325e-06
-5.07021e-06
-3.45569e-07
-3.48303e-06
-1.28921e-06
-3.89516e-07
1.68869e-06
-1.32997e-06
4.35541e-06
-2.59515e-06
6.17397e-06
-3.99033e-06
7.14358e-06
-5.36504e-06
7.34978e-06
-6.61195e-06
6.91329e-06
-7.65922e-06
5.96268e-06
-8.46088e-06
4.61991e-06
-8.98785e-06
2.99474e-06
-9.221e-06
1.18611e-06
-9.14711e-06
-7.11958e-07
-8.75806e-06
-2.60233e-06
-8.05366e-06
-4.37613e-06
-7.04838e-06
-5.90567e-06
-5.78175e-06
-7.04158e-06
-4.33106e-06
-7.61764e-06
-2.82333e-06
-7.46709e-06
-1.44132e-06
-6.45222e-06
-4.16431e-07
-4.50792e-06
-1.70564e-06
-4.52999e-07
2.14169e-06
-1.52405e-06
5.42646e-06
-2.93143e-06
7.58136e-06
-4.44433e-06
8.65648e-06
-5.89786e-06
8.80331e-06
-7.18652e-06
8.20195e-06
-8.24964e-06
7.0258e-06
-9.05563e-06
5.42591e-06
-9.58855e-06
3.52766e-06
-9.83807e-06
1.43563e-06
-9.79347e-06
-7.56558e-07
-9.44183e-06
-2.95398e-06
-8.77079e-06
-5.04717e-06
-7.77671e-06
-6.89974e-06
-6.47865e-06
-8.33964e-06
-4.93767e-06
-9.15862e-06
-3.2783e-06
-9.12645e-06
-1.70514e-06
-8.02538e-06
-5.02531e-07
-5.71053e-06
-2.20817e-06
-5.28965e-07
2.67065e-06
-1.7416e-06
6.6391e-06
-3.28146e-06
9.12121e-06
-4.87652e-06
1.02515e-05
-6.353e-06
1.02798e-05
-7.61747e-06
9.46642e-06
-8.63121e-06
8.03954e-06
-9.38633e-06
6.18102e-06
-9.88703e-06
4.02836e-06
-1.01366e-05
1.68524e-06
-1.01297e-05
-7.63503e-07
-9.84888e-06
-3.23479e-06
-9.26714e-06
-5.62891e-06
-8.35623e-06
-7.81066e-06
-7.10367e-06
-9.59221e-06
-5.53921e-06
-1.07231e-05
-3.76928e-06
-1.08964e-05
-2.01122e-06
-9.78345e-06
-6.09341e-07
-7.11241e-06
-2.81752e-06
-6.2535e-07
3.296e-06
-1.9928e-06
8.00655e-06
-3.64212e-06
1.07705e-05
-5.25721e-06
1.18666e-05
-6.66767e-06
1.16902e-05
-7.80872e-06
1.06075e-05
-8.67847e-06
8.90929e-06
-9.30384e-06
6.8064e-06
-9.7169e-06
4.44142e-06
-9.93969e-06
1.90803e-06
-9.97531e-06
-7.2788e-07
-9.80369e-06
-3.40641e-06
-9.38208e-06
-6.05052e-06
-8.65232e-06
-8.54042e-06
-7.55847e-06
-1.06861e-05
-6.0794e-06
-1.22021e-05
-4.27857e-06
-1.26972e-05
-2.36547e-06
-1.16966e-05
-7.45191e-07
-8.73268e-06
-3.5627e-06
-7.56643e-07
4.05265e-06
-2.29268e-06
9.54259e-06
-4.00291e-06
1.24807e-05
-5.53325e-06
1.3397e-05
-6.74188e-06
1.28989e-05
-7.61816e-06
1.14838e-05
-8.21568e-06
9.50681e-06
-8.60758e-06
7.1983e-06
-8.86e-06
4.69384e-06
-9.01745e-06
2.06548e-06
-9.09465e-06
-6.50679e-07
-9.0718e-06
-3.42926e-06
-8.8926e-06
-6.22971e-06
-8.46748e-06
-8.96554e-06
-7.68759e-06
-1.14659e-05
-6.45886e-06
-1.34309e-05
-4.76619e-06
-1.43899e-05
-2.77131e-06
-1.36914e-05
-9.23612e-07
-1.05804e-05
-4.48632e-06
-9.48343e-07
5.00099e-06
-2.65876e-06
1.1253e-05
-4.33075e-06
1.41527e-05
-5.60365e-06
1.46699e-05
-6.4117e-06
1.37069e-05
-6.8342e-06
1.19062e-05
-6.99984e-06
9.67245e-06
-7.03541e-06
7.23386e-06
-7.04223e-06
4.70066e-06
-7.08684e-06
2.11009e-06
-7.19683e-06
-5.40688e-07
-7.35697e-06
-3.26912e-06
-7.50429e-06
-6.08239e-06
-7.52403e-06
-8.9458e-06
-7.25345e-06
-1.17365e-05
-6.50751e-06
-1.41768e-05
-5.14838e-06
-1.5749e-05
-3.22204e-06
-1.56178e-05
-1.16627e-06
-1.26361e-05
-5.65259e-06
-1.24059e-06
6.24158e-06
-3.09415e-06
1.31066e-05
-4.5289e-06
1.55875e-05
-5.2675e-06
1.54085e-05
-5.40046e-06
1.38399e-05
-5.13873e-06
1.16445e-05
-4.69798e-06
9.2317e-06
-4.25429e-06
6.79017e-06
-3.93443e-06
4.38081e-06
-3.81882e-06
1.99447e-06
-3.94512e-06
-4.14386e-07
-4.30738e-06
-2.90686e-06
-4.84849e-06
-5.54129e-06
-5.44671e-06
-8.34758e-06
-5.90184e-06
-1.12814e-05
-5.93721e-06
-1.41414e-05
-5.2516e-06
-1.64346e-05
-3.6753e-06
-1.71941e-05
-1.50255e-06
-1.48089e-05
-7.15515e-06
-1.67673e-06
7.91831e-06
-3.52334e-06
1.49532e-05
-4.33526e-06
1.63994e-05
-4.12068e-06
1.51939e-05
-3.23751e-06
1.29567e-05
-2.05561e-06
1.04626e-05
-8.63164e-07
8.03925e-06
1.42378e-07
5.78462e-06
8.35326e-07
3.68786e-06
1.14026e-06
1.68954e-06
1.01804e-06
-2.92165e-07
4.62051e-07
-2.35087e-06
-4.93604e-07
-4.58563e-06
-1.75224e-06
-7.08894e-06
-3.11932e-06
-9.91432e-06
-4.26435e-06
-1.29964e-05
-4.71647e-06
-1.59825e-05
-3.97735e-06
-1.79332e-05
-1.94777e-06
-1.68385e-05
-9.10292e-06
-2.23279e-06
1.01511e-05
-3.59804e-06
1.63184e-05
-3.09407e-06
1.58954e-05
-1.37087e-06
1.34707e-05
8.58107e-07
1.07277e-05
3.10396e-06
8.21676e-06
5.07601e-06
6.06721e-06
6.6175e-06
4.24314e-06
7.6484e-06
2.65696e-06
8.12629e-06
1.21164e-06
8.02447e-06
-1.90344e-07
7.32405e-06
-1.65045e-06
6.01952e-06
-3.2811e-06
4.14206e-06
-5.21149e-06
1.80898e-06
-7.58123e-06
-6.94255e-07
-1.04932e-05
-2.81259e-06
-1.38642e-05
-3.67218e-06
-1.70736e-05
-2.41442e-06
-1.80962e-05
-1.15173e-05
-2.57482e-06
1.27259e-05
-2.18811e-06
1.59317e-05
7.07098e-07
1.30002e-05
4.44998e-06
9.72782e-06
8.10361e-06
7.07411e-06
1.12613e-05
5.05902e-06
1.3779e-05
3.54956e-06
1.56298e-05
2.39232e-06
1.68277e-05
1.45907e-06
1.73882e-05
6.51101e-07
1.73103e-05
-1.12369e-07
1.65681e-05
-9.08227e-07
1.51111e-05
-1.82415e-06
1.2876e-05
-2.97634e-06
9.82411e-06
-4.52939e-06
6.0348e-06
-6.70387e-06
1.89525e-06
-9.72461e-06
-1.56811e-06
-1.36102e-05
-2.46077e-06
-1.72036e-05
-1.39781e-05
-7.84964e-07
1.35109e-05
4.07928e-06
1.10675e-05
1.02923e-05
6.78723e-06
1.57826e-05
4.2375e-06
2.01398e-05
2.71688e-06
2.34322e-05
1.76667e-06
2.58277e-05
1.15408e-06
2.74824e-05
7.37593e-07
2.85108e-05
4.30693e-07
2.89813e-05
1.80608e-07
2.89175e-05
-4.86065e-08
2.82967e-05
-2.87438e-07
2.70443e-05
-5.71775e-07
2.50235e-05
-9.55512e-07
2.2027e-05
-1.53284e-06
1.77978e-05
-2.47473e-06
1.21614e-05
-4.08822e-06
5.47246e-06
-6.92127e-06
-1.30568e-07
-1.16005e-05
-1.41087e-05
1.35109e-05
2.45784e-05
3.13656e-05
3.56031e-05
3.832e-05
4.00866e-05
4.12407e-05
4.19783e-05
4.2409e-05
4.25896e-05
4.2541e-05
4.22536e-05
4.16818e-05
4.07263e-05
3.91934e-05
3.67187e-05
3.26305e-05
2.57092e-05
1.41087e-05
)
;

boundaryField
{
    movingWall
    {
        type            calculated;
        value           uniform 0;
    }
    fixedWalls
    {
        type            calculated;
        value           uniform 0;
    }
    frontAndBack
    {
        type            empty;
    }
}


// ************************************************************************* //
