/*--------------------------------*- C++ -*----------------------------------*\
| =========                 |                                                 |
| \\      /  F ield         | OpenFOAM: The Open Source CFD Toolbox           |
|  \\    /   O peration     | Version:  2506                                  |
|   \\  /    A nd           | Website:  www.openfoam.com                      |
|    \\/     M anipulation  |                                                 |
\*---------------------------------------------------------------------------*/
FoamFile
{
    version     2.0;
    format      ascii;
    arch        "LSB;label=32;scalar=64";
    class       volVectorField;
    location    "0.1";
    object      U;
}
// * * * * * * * * * * * * * * * * * * * * * * * * * * * * * * * * * * * * * //

dimensions      [0 1 -1 0 0 0 0];

internalField   nonuniform List<vector> 
400
(
(0.000249156 -0.000245708 0)
(0.000137443 0.000111479 0)
(-0.001162 0.000557825 0)
(-0.00343106 0.000872612 0)
(-0.00628136 0.00103008 0)
(-0.00932273 0.00104529 0)
(-0.0122073 0.000942668 0)
(-0.0146476 0.000748259 0)
(-0.016422 0.000486772 0)
(-0.0173753 0.000181848 0)
(-0.0174201 -0.000142477 0)
(-0.0165405 -0.000460294 0)
(-0.0147977 -0.000742883 0)
(-0.0123364 -0.000958685 0)
(-0.00938791 -0.00107449 0)
(-0.00626728 -0.00105849 0)
(-0.00335772 -0.000886197 0)
(-0.00107609 -0.000550176 0)
(0.000190689 -9.08115e-05 0)
(0.000263313 0.000257862 0)
(-7.60989e-05 -0.000165268 0)
(-0.00158581 0.00162134 0)
(-0.00560184 0.00356238 0)
(-0.0115298 0.00495506 0)
(-0.0185842 0.00564943 0)
(-0.0259659 0.0056642 0)
(-0.0329136 0.00508444 0)
(-0.0387692 0.00402341 0)
(-0.0430134 0.00260383 0)
(-0.0452801 0.000953031 0)
(-0.0453662 -0.000795551 0)
(-0.043242 -0.00249939 0)
(-0.0390617 -0.00400577 0)
(-0.0331709 -0.0051549 0)
(-0.0261056 -0.00578935 0)
(-0.0185735 -0.00577244 0)
(-0.0114008 -0.00501895 0)
(-0.00543827 -0.00353999 0)
(-0.00147496 -0.00154074 0)
(-4.31218e-05 0.000221714 0)
(-0.000519532 0.00107426 0)
(-0.00365034 0.00564577 0)
(-0.0104168 0.0100613 0)
(-0.0196669 0.0131888 0)
(-0.0302629 0.0146974 0)
(-0.0411363 0.0145881 0)
(-0.0512612 0.0130299 0)
(-0.059741 0.0102787 0)
(-0.0658638 0.00663073 0)
(-0.0691267 0.00240523 0)
(-0.0692512 -0.00205874 0)
(-0.0661981 -0.00640052 0)
(-0.06018 -0.0102396 0)
(-0.0516696 -0.0131865 0)
(-0.0413957 -0.0148695 0)
(-0.0303162 -0.0149807 0)
(-0.0195423 -0.0133484 0)
(-0.010218 -0.0100316 0)
(-0.00350041 -0.00547619 0)
(-0.000471036 -0.000938957 0)
(-0.000913192 0.00342289 0)
(-0.00560213 0.0120259 0)
(-0.0150648 0.0196031 0)
(-0.0274856 0.0247886 0)
(-0.0413355 0.0271417 0)
(-0.0553062 0.0266844 0)
(-0.0681725 0.0237041 0)
(-0.0788746 0.0186375 0)
(-0.0865763 0.0119987 0)
(-0.0906881 0.00434723 0)
(-0.0908811 -0.00372051 0)
(-0.087103 -0.0115717 0)
(-0.0795928 -0.0185417 0)
(-0.0688931 -0.0239547 0)
(-0.0558519 -0.0271687 0)
(-0.0415997 -0.0276543 0)
(-0.0274724 -0.0251098 0)
(-0.0148897 -0.0196035 0)
(-0.00543177 -0.0117634 0)
(-0.0008505 -0.00318371 0)
(-0.00126028 0.00676841 0)
(-0.00742918 0.0206285 0)
(-0.0195281 0.0320047 0)
(-0.0350399 0.0394714 0)
(-0.0520076 0.0425985 0)
(-0.0688803 0.0415109 0)
(-0.0842623 0.0366721 0)
(-0.0969757 0.0287421 0)
(-0.106106 0.0184855 0)
(-0.111012 0.00672934 0)
(-0.111329 -0.00564872 0)
(-0.106986 -0.0177188 0)
(-0.0982171 -0.028503 0)
(-0.085589 -0.0370017 0)
(-0.0700143 -0.0422544 0)
(-0.0527508 -0.0434491 0)
(-0.0353386 -0.0400795 0)
(-0.019493 -0.0321337 0)
(-0.00728082 -0.0203128 0)
(-0.00118918 -0.00641411 0)
(-0.00158768 0.0110475 0)
(-0.00920602 0.0314064 0)
(-0.0239223 0.047245 0)
(-0.042494 0.0572045 0)
(-0.0625062 0.060998 0)
(-0.0821604 0.0589621 0)
(-0.0999106 0.0518162 0)
(-0.114497 0.0404961 0)
(-0.124965 0.0260479 0)
(-0.130651 0.00958062 0)
(-0.13117 -0.00774048 0)
(-0.126419 -0.0246836 0)
(-0.116602 -0.0399453 0)
(-0.102261 -0.052173 0)
(-0.0843225 -0.0600352 0)
(-0.0641314 -0.0623561 0)
(-0.0434182 -0.0583169 0)
(-0.0242209 -0.0476995 0)
(-0.00915772 -0.031153 0)
(-0.0015218 -0.0105953 0)
(-0.00192143 0.0162507 0)
(-0.0110168 0.0443656 0)
(-0.0283841 0.0653307 0)
(-0.0500095 0.0779645 0)
(-0.0729929 0.0822701 0)
(-0.095291 0.0789287 0)
(-0.115237 0.0690152 0)
(-0.131533 0.0538034 0)
(-0.143232 0.0346485 0)
(-0.149682 0.0129438 0)
(-0.150493 -0.0098714 0)
(-0.145525 -0.0322801 0)
(-0.134914 -0.0526597 0)
(-0.119127 -0.069287 0)
(-0.0990422 -0.0804045 0)
(-0.0760337 -0.0843725 0)
(-0.0519933 -0.0799171 0)
(-0.0292972 -0.0664468 0)
(-0.0111896 -0.0444069 0)
(-0.00188439 -0.015768 0)
(-0.00228491 0.0224174 0)
(-0.0129402 0.0595696 0)
(-0.0330345 0.0862905 0)
(-0.0576975 0.101704 0)
(-0.0835116 0.106283 0)
(-0.10821 0.101219 0)
(-0.130057 0.0880628 0)
(-0.147786 0.0684957 0)
(-0.160517 0.0442039 0)
(-0.167665 0.0168503 0)
(-0.168857 -0.0118888 0)
(-0.163914 -0.040255 0)
(-0.152868 -0.0663389 0)
(-0.136045 -0.0880486 0)
(-0.114185 -0.103151 0)
(-0.0886028 -0.109428 0)
(-0.0612836 -0.104967 0)
(-0.0349319 -0.0885809 0)
(-0.013503 -0.0602991 0)
(-0.00231237 -0.0220473 0)
(-0.00270197 0.0296316 0)
(-0.0150531 0.0771341 0)
(-0.0379736 0.110156 0)
(-0.0655967 0.128309 0)
(-0.0939527 0.132779 0)
(-0.1206 0.12548 0)
(-0.143828 0.108587 0)
(-0.162498 0.0842609 0)
(-0.175897 0.0545298 0)
(-0.183572 0.0212894 0)
(-0.185213 -0.0136141 0)
(-0.180603 -0.0482593 0)
(-0.169635 -0.0805198 0)
(-0.152411 -0.107969 0)
(-0.129414 -0.127867 0)
(-0.101758 -0.137297 0)
(-0.0713964 -0.133484 0)
(-0.0413007 -0.114334 0)
(-0.0162235 -0.0791479 0)
(-0.0028436 -0.0296203 0)
(-0.00320488 0.0380244 0)
(-0.0174488 0.0972183 0)
(-0.0432932 0.136919 0)
(-0.0736662 0.157521 0)
(-0.104018 0.161271 0)
(-0.131834 0.151088 0)
(-0.15557 0.129943 0)
(-0.174371 0.10055 0)
(-0.187816 0.0652705 0)
(-0.195685 0.0261659 0)
(-0.197786 -0.0148522 0)
(-0.193883 -0.0558219 0)
(-0.183698 -0.0945171 0)
(-0.167016 -0.128261 0)
(-0.143913 -0.153819 0)
(-0.115098 -0.167464 0)
(-0.0822742 -0.165296 0)
(-0.0485353 -0.143896 0)
(-0.0194881 -0.101345 0)
(-0.00352622 -0.0387501 0)
(-0.0038488 0.047795 0)
(-0.0202698 0.120023 0)
(-0.0491006 0.166478 0)
(-0.0817716 0.188831 0)
(-0.113164 0.190911 0)
(-0.140875 0.177008 0)
(-0.163759 0.151087 0)
(-0.181446 0.116475 0)
(-0.193975 0.075822 0)
(-0.201474 0.0312486 0)
(-0.203948 -0.015415 0)
(-0.201175 -0.0623367 0)
(-0.192686 -0.107367 0)
(-0.177867 -0.147734 0)
(-0.156211 -0.179791 0)
(-0.127752 -0.198943 0)
(-0.0936126 -0.199881 0)
(-0.0567079 -0.177307 0)
(-0.0234671 -0.127326 0)
(-0.00443257 -0.0497928 0)
(-0.00473763 0.0592611 0)
(-0.0237582 0.145799 0)
(-0.0555357 0.198547 0)
(-0.089632 0.221322 0)
(-0.120479 0.220305 0)
(-0.146124 0.20163 0)
(-0.166153 0.17045 0)
(-0.180948 0.130711 0)
(-0.191187 0.0852586 0)
(-0.197473 0.0361155 0)
(-0.200088 -0.0151579 0)
(-0.198874 -0.067074 0)
(-0.193185 -0.117798 0)
(-0.181956 -0.1647 0)
(-0.163933 -0.20392 0)
(-0.138163 -0.230045 0)
(-0.104712 -0.236116 0)
(-0.0657892 -0.214278 0)
(-0.0283947 -0.157528 0)
(-0.00568385 -0.0632411 0)
(-0.00606998 0.0729618 0)
(-0.0283227 0.174842 0)
(-0.0627445 0.232489 0)
(-0.0966571 0.253415 0)
(-0.124424 0.247277 0)
(-0.145123 0.222585 0)
(-0.159531 0.18581 0)
(-0.169073 0.141427 0)
(-0.175235 0.0922887 0)
(-0.179178 0.0401133 0)
(-0.181524 -0.0140268 0)
(-0.182241 -0.0692267 0)
(-0.180565 -0.124244 0)
(-0.175003 -0.176923 0)
(-0.16347 -0.223534 0)
(-0.14373 -0.258096 0)
(-0.114199 -0.271926 0)
(-0.0755285 -0.253899 0)
(-0.0346032 -0.192299 0)
(-0.00749293 -0.0798092 0)
(-0.00821425 0.0898385 0)
(-0.0346011 0.207432 0)
(-0.0707034 0.266977 0)
(-0.101523 0.282468 0)
(-0.122291 0.268549 0)
(-0.134034 0.236575 0)
(-0.139275 0.194255 0)
(-0.140725 0.146306 0)
(-0.140734 0.0952902 0)
(-0.14101 0.0423631 0)
(-0.142512 -0.0121056 0)
(-0.145386 -0.0680083 0)
(-0.148871 -0.124967 0)
(-0.151198 -0.181686 0)
(-0.149542 -0.235076 0)
(-0.140245 -0.279145 0)
(-0.119485 -0.303793 0)
(-0.0851433 -0.294127 0)
(-0.0425149 -0.231673 0)
(-0.0102274 -0.100573 0)
(-0.0117902 0.111494 0)
(-0.0433837 0.243525 0)
(-0.078607 0.299332 0)
(-0.101167 0.304184 0)
(-0.109135 0.279433 0)
(-0.106758 0.239337 0)
(-0.0987791 0.192321 0)
(-0.0892056 0.142767 0)
(-0.0810687 0.0925063 0)
(-0.0764228 0.0418644 0)
(-0.0764402 -0.0096423 0)
(-0.0814566 -0.0628182 0)
(-0.0908905 -0.118327 0)
(-0.103021 -0.176082 0)
(-0.114682 -0.234273 0)
(-0.121045 -0.287822 0)
(-0.11575 -0.326186 0)
(-0.0925298 -0.330943 0)
(-0.0524124 -0.27482 0)
(-0.0144459 -0.127128 0)
(-0.0175686 0.140581 0)
(-0.0548762 0.281861 0)
(-0.0830737 0.324225 0)
(-0.0885925 0.311808 0)
(-0.0758705 0.273683 0)
(-0.0536084 0.225971 0)
(-0.0287164 0.176546 0)
(-0.00597771 0.128526 0)
(0.0114832 0.0824956 0)
(0.0217381 0.0377588 0)
(0.0236847 -0.00701902 0)
(0.0168578 -0.0534708 0)
(0.00146605 -0.10326 0)
(-0.0213133 -0.157669 0)
(-0.0487592 -0.216748 0)
(-0.0757899 -0.277569 0)
(-0.0940832 -0.331035 0)
(-0.092358 -0.357042 0)
(-0.0633908 -0.318853 0)
(-0.020652 -0.161809 0)
(-0.0254621 0.181685 0)
(-0.0658573 0.317617 0)
(-0.073561 0.331059 0)
(-0.0485023 0.294966 0)
(-0.00623444 0.243691 0)
(0.0403171 0.191832 0)
(0.0835145 0.144534 0)
(0.119191 0.102548 0)
(0.145199 0.0648466 0)
(0.160452 0.0297582 0)
(0.164325 -0.00463831 0)
(0.156373 -0.0404367 0)
(0.136292 -0.079918 0)
(0.104183 -0.125484 0)
(0.0612316 -0.179227 0)
(0.011027 -0.241497 0)
(-0.0383537 -0.307379 0)
(-0.07197 -0.35972 0)
(-0.0701659 -0.356318 0)
(-0.0279312 -0.20827 0)
(-0.0296523 0.239182 0)
(-0.060885 0.335708 0)
(-0.022087 0.300352 0)
(0.0502451 0.239892 0)
(0.127084 0.182656 0)
(0.196308 0.135076 0)
(0.253428 0.0971041 0)
(0.297156 0.0666081 0)
(0.327588 0.0411893 0)
(0.345145 0.018704 0)
(0.350032 -0.00277352 0)
(0.342001 -0.0251553 0)
(0.32027 -0.0506026 0)
(0.283596 -0.081807 0)
(0.230714 -0.122171 0)
(0.161531 -0.175385 0)
(0.0794621 -0.243162 0)
(-0.00343391 -0.31891 0)
(-0.0547621 -0.368461 0)
(-0.028475 -0.267568 0)
(0.00808788 0.281877 0)
(0.0197772 0.294965 0)
(0.139007 0.210925 0)
(0.264305 0.14339 0)
(0.36408 0.0970723 0)
(0.439923 0.065654 0)
(0.496148 0.0441213 0)
(0.536143 0.0287916 0)
(0.562612 0.0171362 0)
(0.577409 0.00745924 0)
(0.581469 -0.00148193 0)
(0.574816 -0.0107987 0)
(0.556504 -0.0217725 0)
(0.524437 -0.0362408 0)
(0.47521 -0.0571549 0)
(0.404112 -0.089278 0)
(0.304893 -0.139643 0)
(0.173262 -0.216306 0)
(0.0411172 -0.311605 0)
(0.0184228 -0.299985 0)
(0.299611 0.146098 0)
(0.396286 0.127507 0)
(0.557422 0.076085 0)
(0.674455 0.0437098 0)
(0.743801 0.0255525 0)
(0.787001 0.0152204 0)
(0.815267 0.0091921 0)
(0.83368 0.00549363 0)
(0.845069 0.00301767 0)
(0.851032 0.00114685 0)
(0.852325 -0.00049508 0)
(0.849058 -0.00220492 0)
(0.840708 -0.00432403 0)
(0.825894 -0.00740684 0)
(0.801884 -0.012514 0)
(0.763482 -0.021755 0)
(0.699021 -0.039267 0)
(0.583912 -0.0726478 0)
(0.415819 -0.127862 0)
(0.308822 -0.14947 0)
)
;

boundaryField
{
    movingWall
    {
        type            fixedValue;
        value           uniform (1 0 0);
    }
    fixedWalls
    {
        type            noSlip;
    }
    frontAndBack
    {
        type            empty;
    }
}


// ************************************************************************* //
