/*--------------------------------*- C++ -*----------------------------------*\
| =========                 |                                                 |
| \\      /  F ield         | OpenFOAM: The Open Source CFD Toolbox           |
|  \\    /   O peration     | Version:  2506                                  |
|   \\  /    A nd           | Website:  www.openfoam.com                      |
|    \\/     M anipulation  |                                                 |
\*---------------------------------------------------------------------------*/
FoamFile
{
    version     2.0;
    format      ascii;
    arch        "LSB;label=32;scalar=64";
    class       volVectorField;
    location    "8.375";
    object      diffU;
}
// * * * * * * * * * * * * * * * * * * * * * * * * * * * * * * * * * * * * * //

dimensions      [0 1 -1 0 0 0 0];

internalField   nonuniform List<vector> 
400
(
(0 0 0)
(8.88178e-16 -1.28335e-13 0)
(5.55112e-16 -1.00916e-13 0)
(-4.44089e-16 -1.07335e-13 0)
(-4.44089e-16 -1.06045e-13 0)
(-5.55112e-16 -1.06314e-13 0)
(-7.77156e-16 -1.06272e-13 0)
(-7.77156e-16 -1.06359e-13 0)
(-7.77156e-16 -1.06338e-13 0)
(-9.99201e-16 -1.06355e-13 0)
(-9.99201e-16 -1.06369e-13 0)
(-9.99201e-16 -1.06379e-13 0)
(-1.22125e-15 -1.0647e-13 0)
(-1.22125e-15 -1.06505e-13 0)
(-9.99201e-16 -1.06393e-13 0)
(-9.99201e-16 -1.06326e-13 0)
(-9.99201e-16 -1.06413e-13 0)
(-1.22125e-15 -1.06433e-13 0)
(-8.88178e-16 -1.06399e-13 0)
(-9.99201e-16 -1.06421e-13 0)
(6.32827e-15 -1.01648e-13 0)
(-4.55191e-15 -1.06076e-13 0)
(-2.10942e-15 -1.05992e-13 0)
(-1.44329e-15 -1.06197e-13 0)
(-1.22125e-15 -1.06362e-13 0)
(-1.66533e-15 -1.06341e-13 0)
(-9.99201e-16 -1.06384e-13 0)
(-1.44329e-15 -1.0637e-13 0)
(-1.44329e-15 -1.06351e-13 0)
(-1.22125e-15 -1.06308e-13 0)
(-1.44329e-15 -1.06288e-13 0)
(-1.44329e-15 -1.06369e-13 0)
(-1.22125e-15 -1.06485e-13 0)
(-8.88178e-16 -1.06511e-13 0)
(-1.22125e-15 -1.06436e-13 0)
(-1.22125e-15 -1.06415e-13 0)
(-7.77156e-16 -1.06388e-13 0)
(-1.22125e-15 -1.06497e-13 0)
(-1.22125e-15 -1.06517e-13 0)
(-8.88178e-16 -1.06451e-13 0)
(-7.66054e-15 -1.81753e-13 0)
(5.55112e-16 -9.0748e-14 0)
(-1.22125e-15 -1.10092e-13 0)
(-6.66134e-16 -1.05573e-13 0)
(-1.22125e-15 -1.06556e-13 0)
(-8.88178e-16 -1.06306e-13 0)
(-7.77156e-16 -1.06294e-13 0)
(-9.99201e-16 -1.0612e-13 0)
(-9.99201e-16 -1.06197e-13 0)
(-1.22125e-15 -1.06297e-13 0)
(-9.99201e-16 -1.06392e-13 0)
(-8.88178e-16 -1.06519e-13 0)
(-8.88178e-16 -1.06595e-13 0)
(-8.88178e-16 -1.06576e-13 0)
(-6.66134e-16 -1.06526e-13 0)
(-6.66134e-16 -1.06459e-13 0)
(-7.77156e-16 -1.06308e-13 0)
(-7.77156e-16 -1.06394e-13 0)
(-8.88178e-16 -1.06554e-13 0)
(-9.99201e-16 -1.06484e-13 0)
(-9.4369e-15 -5.10177e-14 0)
(4.44089e-16 -1.189e-13 0)
(-1.88738e-15 -1.03697e-13 0)
(-1.44329e-15 -1.07073e-13 0)
(-1.66533e-15 -1.06272e-13 0)
(-1.66533e-15 -1.06533e-13 0)
(-1.22125e-15 -1.0642e-13 0)
(-9.99201e-16 -1.0628e-13 0)
(-6.66134e-16 -1.06281e-13 0)
(-4.44089e-16 -1.06379e-13 0)
(-5.55112e-16 -1.06438e-13 0)
(-6.66134e-16 -1.06487e-13 0)
(-6.66134e-16 -1.06543e-13 0)
(-8.88178e-16 -1.06578e-13 0)
(-8.88178e-16 -1.06494e-13 0)
(-1.22125e-15 -1.06376e-13 0)
(-1.22125e-15 -1.06366e-13 0)
(-1.22125e-15 -1.06443e-13 0)
(-9.99201e-16 -1.06493e-13 0)
(-8.88178e-16 -1.06468e-13 0)
(1.07692e-14 -1.22324e-13 0)
(-3.66374e-15 -1.02979e-13 0)
(-2.22045e-16 -1.07246e-13 0)
(-5.55112e-16 -1.0626e-13 0)
(-4.44089e-16 -1.06466e-13 0)
(-5.55112e-16 -1.06632e-13 0)
(-7.77156e-16 -1.06621e-13 0)
(-6.66134e-16 -1.06545e-13 0)
(-6.66134e-16 -1.06496e-13 0)
(-5.55112e-16 -1.06427e-13 0)
(-6.66134e-16 -1.0632e-13 0)
(-6.66134e-16 -1.0641e-13 0)
(-8.88178e-16 -1.06488e-13 0)
(-6.66134e-16 -1.06494e-13 0)
(-5.55112e-16 -1.06415e-13 0)
(-8.88178e-16 -1.0636e-13 0)
(-5.55112e-16 -1.06338e-13 0)
(-8.88178e-16 -1.06441e-13 0)
(-1.22125e-15 -1.06499e-13 0)
(-8.88178e-16 -1.06502e-13 0)
(-5.88418e-15 -1.39765e-13 0)
(6.66134e-16 -9.97782e-14 0)
(-3.33067e-16 -1.08067e-13 0)
(-8.88178e-16 -1.06127e-13 0)
(-7.77156e-16 -1.06416e-13 0)
(-8.88178e-16 -1.06395e-13 0)
(-9.99201e-16 -1.06461e-13 0)
(-9.99201e-16 -1.06457e-13 0)
(-1.22125e-15 -1.06434e-13 0)
(-1.22125e-15 -1.06441e-13 0)
(-1.22125e-15 -1.0643e-13 0)
(-9.99201e-16 -1.06499e-13 0)
(-9.99201e-16 -1.0645e-13 0)
(-1.22125e-15 -1.06369e-13 0)
(-9.99201e-16 -1.06357e-13 0)
(-9.99201e-16 -1.06354e-13 0)
(-1.22125e-15 -1.06341e-13 0)
(-7.77156e-16 -1.0635e-13 0)
(-9.99201e-16 -1.06431e-13 0)
(-8.88178e-16 -1.06468e-13 0)
(1.26565e-14 -3.6967e-14 0)
(-2.55351e-15 -1.20279e-13 0)
(3.33067e-16 -1.02983e-13 0)
(-9.99201e-16 -1.06969e-13 0)
(-7.77156e-16 -1.0623e-13 0)
(-4.44089e-16 -1.06396e-13 0)
(-8.88178e-16 -1.06424e-13 0)
(-7.77156e-16 -1.06417e-13 0)
(-7.77156e-16 -1.06312e-13 0)
(-8.88178e-16 -1.06337e-13 0)
(-8.88178e-16 -1.06349e-13 0)
(-8.88178e-16 -1.0636e-13 0)
(-1.44329e-15 -1.0636e-13 0)
(-1.22125e-15 -1.06372e-13 0)
(-9.99201e-16 -1.06422e-13 0)
(-1.22125e-15 -1.06506e-13 0)
(-1.22125e-15 -1.06529e-13 0)
(-9.99201e-16 -1.06434e-13 0)
(-9.99201e-16 -1.06449e-13 0)
(-9.99201e-16 -1.06423e-13 0)
(-7.88258e-15 -1.41709e-13 0)
(-1.44329e-15 -9.87769e-14 0)
(-2.55351e-15 -1.08129e-13 0)
(-6.66134e-16 -1.0602e-13 0)
(-8.88178e-16 -1.06524e-13 0)
(-9.99201e-16 -1.0633e-13 0)
(-8.88178e-16 -1.06295e-13 0)
(-1.22125e-15 -1.06356e-13 0)
(-1.22125e-15 -1.06365e-13 0)
(-9.99201e-16 -1.0639e-13 0)
(-1.22125e-15 -1.06418e-13 0)
(-6.66134e-16 -1.06389e-13 0)
(-6.66134e-16 -1.06441e-13 0)
(-4.44089e-16 -1.06397e-13 0)
(-7.77156e-16 -1.06274e-13 0)
(-7.77156e-16 -1.06304e-13 0)
(-1.22125e-15 -1.06516e-13 0)
(-1.22125e-15 -1.06569e-13 0)
(-9.99201e-16 -1.06485e-13 0)
(-9.99201e-16 -1.06445e-13 0)
(3.10862e-15 -1.43625e-13 0)
(-1.11022e-16 -9.85876e-14 0)
(2.22045e-16 -1.08439e-13 0)
(-6.66134e-16 -1.0606e-13 0)
(-5.55112e-16 -1.06506e-13 0)
(-6.66134e-16 -1.06318e-13 0)
(-4.44089e-16 -1.06262e-13 0)
(-4.44089e-16 -1.06356e-13 0)
(-6.66134e-16 -1.06461e-13 0)
(-5.55112e-16 -1.06438e-13 0)
(-7.77156e-16 -1.06449e-13 0)
(-8.88178e-16 -1.06366e-13 0)
(-9.99201e-16 -1.06289e-13 0)
(-1.22125e-15 -1.06314e-13 0)
(-1.22125e-15 -1.06345e-13 0)
(-9.99201e-16 -1.06252e-13 0)
(-7.77156e-16 -1.06426e-13 0)
(-9.99201e-16 -1.06609e-13 0)
(-9.99201e-16 -1.06488e-13 0)
(-9.99201e-16 -1.06408e-13 0)
(-1.21014e-14 -3.86393e-14 0)
(6.66134e-16 -1.21006e-13 0)
(-2.33147e-15 -1.03069e-13 0)
(-1.22125e-15 -1.07083e-13 0)
(-1.44329e-15 -1.06145e-13 0)
(-1.44329e-15 -1.06298e-13 0)
(-1.66533e-15 -1.06324e-13 0)
(-1.44329e-15 -1.06348e-13 0)
(-1.44329e-15 -1.06363e-13 0)
(-9.99201e-16 -1.06334e-13 0)
(-1.22125e-15 -1.06265e-13 0)
(-1.22125e-15 -1.06288e-13 0)
(-1.22125e-15 -1.06292e-13 0)
(-8.88178e-16 -1.06427e-13 0)
(-9.99201e-16 -1.06601e-13 0)
(-8.88178e-16 -1.06471e-13 0)
(-8.88178e-16 -1.06328e-13 0)
(-7.77156e-16 -1.06389e-13 0)
(-1.22125e-15 -1.06527e-13 0)
(-1.22125e-15 -1.06511e-13 0)
(3.77476e-15 -1.59895e-13 0)
(-2.33147e-15 -9.53653e-14 0)
(-9.99201e-16 -1.08782e-13 0)
(-1.44329e-15 -1.05802e-13 0)
(-1.66533e-15 -1.0628e-13 0)
(-1.44329e-15 -1.06248e-13 0)
(-1.44329e-15 -1.06438e-13 0)
(-1.22125e-15 -1.06481e-13 0)
(-1.22125e-15 -1.06494e-13 0)
(-1.22125e-15 -1.06556e-13 0)
(-8.88178e-16 -1.06492e-13 0)
(-9.99201e-16 -1.06489e-13 0)
(-7.77156e-16 -1.06456e-13 0)
(-7.77156e-16 -1.06395e-13 0)
(-8.88178e-16 -1.06369e-13 0)
(-1.22125e-15 -1.06513e-13 0)
(-8.88178e-16 -1.06502e-13 0)
(-8.88178e-16 -1.06469e-13 0)
(-7.77156e-16 -1.06536e-13 0)
(-7.77156e-16 -1.06521e-13 0)
(8.43769e-15 -7.31419e-14 0)
(-3.66374e-15 -1.12805e-13 0)
(-5.55112e-16 -1.04816e-13 0)
(-1.88738e-15 -1.06743e-13 0)
(-9.99201e-16 -1.06283e-13 0)
(-9.99201e-16 -1.06379e-13 0)
(-5.55112e-16 -1.06412e-13 0)
(-9.99201e-16 -1.06513e-13 0)
(-4.44089e-16 -1.06631e-13 0)
(-6.66134e-16 -1.066e-13 0)
(-7.77156e-16 -1.06486e-13 0)
(-6.66134e-16 -1.06425e-13 0)
(-6.66134e-16 -1.06385e-13 0)
(-8.88178e-16 -1.06288e-13 0)
(-6.66134e-16 -1.06241e-13 0)
(-6.66134e-16 -1.06441e-13 0)
(-7.77156e-16 -1.0652e-13 0)
(-8.88178e-16 -1.06444e-13 0)
(-8.88178e-16 -1.06391e-13 0)
(-9.99201e-16 -1.06415e-13 0)
(-1.69864e-14 -1.1933e-13 0)
(1.44329e-15 -1.03346e-13 0)
(-2.77556e-15 -1.07143e-13 0)
(-9.99201e-16 -1.06346e-13 0)
(-1.66533e-15 -1.06718e-13 0)
(-1.22125e-15 -1.06604e-13 0)
(-1.44329e-15 -1.06555e-13 0)
(-1.22125e-15 -1.06529e-13 0)
(-1.44329e-15 -1.06542e-13 0)
(-1.66533e-15 -1.06393e-13 0)
(-1.66533e-15 -1.06331e-13 0)
(-1.66533e-15 -1.06419e-13 0)
(-1.66533e-15 -1.06494e-13 0)
(-1.66533e-15 -1.06473e-13 0)
(-1.44329e-15 -1.06442e-13 0)
(-1.22125e-15 -1.06398e-13 0)
(-1.22125e-15 -1.06389e-13 0)
(-1.22125e-15 -1.06361e-13 0)
(-1.22125e-15 -1.06404e-13 0)
(-9.99201e-16 -1.06439e-13 0)
(1.11022e-16 -1.33205e-13 0)
(-2.22045e-16 -1.01364e-13 0)
(0 -1.0761e-13 0)
(-6.66134e-16 -1.06111e-13 0)
(-2.22045e-16 -1.06553e-13 0)
(-8.88178e-16 -1.06551e-13 0)
(-8.88178e-16 -1.06515e-13 0)
(-1.22125e-15 -1.06421e-13 0)
(-1.22125e-15 -1.06352e-13 0)
(-1.44329e-15 -1.06409e-13 0)
(-1.22125e-15 -1.06564e-13 0)
(-9.99201e-16 -1.06515e-13 0)
(-8.88178e-16 -1.06564e-13 0)
(-8.88178e-16 -1.0653e-13 0)
(-7.77156e-16 -1.06485e-13 0)
(-8.88178e-16 -1.06441e-13 0)
(-8.88178e-16 -1.06463e-13 0)
(-9.99201e-16 -1.06468e-13 0)
(-7.77156e-16 -1.06533e-13 0)
(-8.88178e-16 -1.06462e-13 0)
(5.32907e-15 -2.83025e-14 0)
(-1.88738e-15 -1.23277e-13 0)
(-4.44089e-16 -1.02701e-13 0)
(-6.66134e-16 -1.07198e-13 0)
(-8.88178e-16 -1.06072e-13 0)
(-8.88178e-16 -1.06239e-13 0)
(-8.88178e-16 -1.06125e-13 0)
(-1.22125e-15 -1.06223e-13 0)
(-1.44329e-15 -1.06337e-13 0)
(-1.22125e-15 -1.06503e-13 0)
(-1.44329e-15 -1.0665e-13 0)
(-1.22125e-15 -1.06539e-13 0)
(-9.99201e-16 -1.06507e-13 0)
(-1.22125e-15 -1.06474e-13 0)
(-9.99201e-16 -1.06439e-13 0)
(-8.88178e-16 -1.0639e-13 0)
(-1.22125e-15 -1.06385e-13 0)
(-9.99201e-16 -1.06427e-13 0)
(-9.99201e-16 -1.06482e-13 0)
(-9.99201e-16 -1.06464e-13 0)
(-3.21965e-15 -1.84322e-13 0)
(-1.88738e-15 -8.94974e-14 0)
(-2.33147e-15 -1.10322e-13 0)
(-2.10942e-15 -1.05552e-13 0)
(-1.88738e-15 -1.06579e-13 0)
(-1.66533e-15 -1.06315e-13 0)
(-1.88738e-15 -1.06332e-13 0)
(-1.22125e-15 -1.06314e-13 0)
(-9.99201e-16 -1.06263e-13 0)
(-1.22125e-15 -1.06355e-13 0)
(-1.88738e-15 -1.06481e-13 0)
(-1.44329e-15 -1.0663e-13 0)
(-1.22125e-15 -1.06593e-13 0)
(-1.22125e-15 -1.06611e-13 0)
(-1.22125e-15 -1.06612e-13 0)
(-9.99201e-16 -1.06515e-13 0)
(-1.22125e-15 -1.06463e-13 0)
(-9.99201e-16 -1.06488e-13 0)
(-8.88178e-16 -1.06446e-13 0)
(-9.99201e-16 -1.06453e-13 0)
(-9.21485e-15 -9.67633e-14 0)
(2.33147e-15 -1.08893e-13 0)
(-3.33067e-16 -1.05556e-13 0)
(-6.66134e-16 -1.0652e-13 0)
(-7.77156e-16 -1.06331e-13 0)
(-6.66134e-16 -1.06363e-13 0)
(-8.88178e-16 -1.06417e-13 0)
(-1.22125e-15 -1.0642e-13 0)
(-1.22125e-15 -1.06368e-13 0)
(-8.88178e-16 -1.0641e-13 0)
(-7.77156e-16 -1.06525e-13 0)
(-6.66134e-16 -1.06638e-13 0)
(-7.77156e-16 -1.06657e-13 0)
(-8.88178e-16 -1.06653e-13 0)
(-7.77156e-16 -1.06636e-13 0)
(-8.88178e-16 -1.06554e-13 0)
(-7.77156e-16 -1.06493e-13 0)
(-9.99201e-16 -1.06492e-13 0)
(-9.99201e-16 -1.06466e-13 0)
(-8.88178e-16 -1.06454e-13 0)
(3.21965e-15 -3.80895e-14 0)
(-2.9976e-15 -1.20412e-13 0)
(-6.66134e-16 -1.03038e-13 0)
(-6.66134e-16 -1.07023e-13 0)
(-4.44089e-16 -1.06222e-13 0)
(-7.77156e-16 -1.06393e-13 0)
(-5.55112e-16 -1.06254e-13 0)
(-3.33067e-16 -1.06332e-13 0)
(-4.44089e-16 -1.06416e-13 0)
(-3.33067e-16 -1.06454e-13 0)
(-6.66134e-16 -1.06499e-13 0)
(-7.77156e-16 -1.06606e-13 0)
(-6.66134e-16 -1.066e-13 0)
(-6.66134e-16 -1.0653e-13 0)
(-9.99201e-16 -1.06512e-13 0)
(-8.88178e-16 -1.06542e-13 0)
(-8.88178e-16 -1.06368e-13 0)
(-9.99201e-16 -1.06323e-13 0)
(-9.99201e-16 -1.06457e-13 0)
(-9.99201e-16 -1.06458e-13 0)
(9.21485e-15 -1.55936e-13 0)
(-3.66374e-15 -9.6078e-14 0)
(-1.44329e-15 -1.09056e-13 0)
(-1.22125e-15 -1.0597e-13 0)
(-1.22125e-15 -1.06565e-13 0)
(-1.44329e-15 -1.06436e-13 0)
(-1.44329e-15 -1.0639e-13 0)
(-1.44329e-15 -1.06445e-13 0)
(-1.44329e-15 -1.06458e-13 0)
(-1.22125e-15 -1.06467e-13 0)
(-9.99201e-16 -1.06441e-13 0)
(-1.22125e-15 -1.06487e-13 0)
(-1.44329e-15 -1.06573e-13 0)
(-1.44329e-15 -1.06598e-13 0)
(-9.99201e-16 -1.06575e-13 0)
(-1.22125e-15 -1.06566e-13 0)
(-1.22125e-15 -1.06501e-13 0)
(-8.88178e-16 -1.06458e-13 0)
(-9.99201e-16 -1.06491e-13 0)
(-9.99201e-16 -1.06489e-13 0)
(-4.10783e-15 -1.40981e-13 0)
(8.88178e-16 -9.98244e-14 0)
(4.44089e-16 -1.0804e-13 0)
(-2.22045e-16 -1.06129e-13 0)
(-1.11022e-16 -1.064e-13 0)
(1.11022e-16 -1.06317e-13 0)
(2.22045e-16 -1.06396e-13 0)
(3.33067e-16 -1.06502e-13 0)
(2.22045e-16 -1.06542e-13 0)
(-1.11022e-16 -1.06508e-13 0)
(-2.22045e-16 -1.06446e-13 0)
(-2.22045e-16 -1.06396e-13 0)
(-3.33067e-16 -1.06535e-13 0)
(-4.44089e-16 -1.06613e-13 0)
(-6.66134e-16 -1.06549e-13 0)
(-6.66134e-16 -1.06463e-13 0)
(-7.77156e-16 -1.06528e-13 0)
(-9.99201e-16 -1.06548e-13 0)
(-9.99201e-16 -1.06488e-13 0)
(-8.88178e-16 -1.06473e-13 0)
)
;

boundaryField
{
    movingWall
    {
        type            calculated;
        value           uniform (-9.99201e-16 -1.06425e-13 0);
    }
    fixedWalls
    {
        type            calculated;
        value           uniform (-9.99201e-16 -1.06425e-13 0);
    }
    frontAndBack
    {
        type            empty;
    }
}


// ************************************************************************* //
