/*--------------------------------*- C++ -*----------------------------------*\
| =========                 |                                                 |
| \\      /  F ield         | OpenFOAM: The Open Source CFD Toolbox           |
|  \\    /   O peration     | Version:  2506                                  |
|   \\  /    A nd           | Website:  www.openfoam.com                      |
|    \\/     M anipulation  |                                                 |
\*---------------------------------------------------------------------------*/
FoamFile
{
    version     2.0;
    format      ascii;
    arch        "LSB;label=32;scalar=64";
    class       volScalarField;
    location    "8.375";
    object      divU;
}
// * * * * * * * * * * * * * * * * * * * * * * * * * * * * * * * * * * * * * //

dimensions      [0 0 -1 0 0 0 0];

internalField   nonuniform List<scalar> 
400
(
1.14112e-11
-2.1019e-12
4.31441e-13
-1.49586e-13
1.7147e-14
-7.6207e-15
1.93796e-14
1.20332e-14
-1.11213e-14
-8.44834e-15
1.92592e-14
1.01636e-14
-6.48437e-14
3.75106e-14
2.05013e-15
1.0866e-14
4.83426e-15
-8.03213e-15
-6.60752e-15
0
-1.77538e-11
2.90361e-12
-5.67414e-13
2.70561e-13
-8.81351e-14
-6.84963e-15
1.71159e-14
8.83447e-15
3.05427e-15
-2.64243e-15
-1.01427e-14
-3.82019e-15
5.82496e-14
3.3027e-15
-6.54436e-14
5.17334e-14
1.53261e-14
-5.83186e-14
3.2084e-14
0
4.58075e-12
-6.556e-13
9.58098e-14
-6.09132e-14
-2.48891e-14
2.81481e-14
-4.06584e-14
-9.18802e-15
1.00838e-14
-9.70795e-15
-2.51483e-14
1.15069e-14
-1.74205e-15
2.36836e-14
-1.70158e-14
1.43127e-15
-9.5765e-15
-2.589e-14
-1.97861e-14
0
5.20417e-12
-4.69235e-13
8.22273e-14
-2.12119e-14
-4.30192e-14
2.26832e-14
7.97569e-15
2.9588e-14
3.43493e-14
4.38216e-15
-1.79858e-14
-4.78845e-15
8.90674e-15
-2.23301e-14
-5.96927e-15
-4.28885e-14
-1.25129e-14
5.06936e-14
3.99104e-14
-2.71051e-14
-7.99599e-12
7.92385e-13
-1.10819e-13
4.62926e-14
2.38684e-14
-4.47696e-14
3.84678e-15
-1.5257e-14
1.90276e-14
-1.82967e-15
-1.71934e-14
-5.96276e-15
1.82477e-14
5.27977e-14
-1.94229e-14
1.35662e-14
-1.00466e-14
-4.83355e-14
1.90682e-14
0
8.23994e-12
-1.18155e-12
2.61257e-13
-1.33067e-13
2.03319e-14
5.84988e-15
2.35328e-14
2.46286e-14
-4.38759e-14
7.10917e-15
6.99233e-15
5.33211e-14
3.97714e-15
1.08356e-14
7.05153e-15
-2.81745e-14
-2.91624e-14
3.37295e-14
-3.05566e-15
-2.71051e-14
1.02999e-12
-1.10852e-12
1.1951e-13
-9.52649e-14
3.65988e-14
-1.4796e-14
1.30025e-14
7.61287e-15
-9.83348e-15
1.22416e-14
8.22785e-15
-7.12574e-14
4.90256e-15
6.22895e-14
1.53759e-14
-5.03519e-14
3.46316e-14
-1.53272e-14
-8.4918e-15
0
-1.14112e-11
2.74112e-12
-4.80303e-13
2.93875e-13
-7.22761e-14
2.01531e-14
2.92254e-14
-4.04808e-14
2.9518e-14
2.21506e-15
-1.77134e-15
6.36635e-14
3.9095e-14
-1.31969e-14
-4.06531e-15
-2.48716e-14
-3.63682e-14
4.84122e-14
-1.23368e-14
0
1.08149e-11
-2.54462e-12
4.86501e-13
-2.19089e-13
4.69991e-14
2.33354e-14
2.6299e-14
-3.97049e-14
2.55353e-15
-1.93255e-14
-1.35682e-14
-7.48806e-15
2.68919e-14
-7.04132e-14
1.74494e-14
1.2675e-14
9.53329e-15
-1.49077e-14
-1.6559e-14
0
-2.54788e-12
1.27417e-12
-2.52512e-13
1.31897e-13
1.53118e-14
3.19717e-15
-7.26572e-14
2.90996e-14
2.62702e-14
5.01383e-14
-4.49384e-14
-1.98399e-14
3.73169e-14
2.9836e-14
-3.91918e-14
1.36868e-14
1.8866e-15
-8.41032e-16
-4.85162e-14
2.71051e-14
-3.08998e-12
3.32344e-13
-1.01942e-13
3.32338e-15
-7.98353e-14
4.92949e-14
-1.26901e-16
1.26353e-14
-2.76253e-14
2.35327e-14
-1.28099e-14
2.06676e-14
2.80199e-14
1.66601e-14
-3.02971e-14
-1.03656e-14
9.79962e-15
2.0769e-14
1.93509e-14
-2.71051e-14
4.71628e-12
-1.68547e-12
3.32989e-13
-7.81351e-14
3.90402e-14
1.37218e-14
-1.17753e-14
7.81949e-15
2.18077e-14
-1.43815e-14
3.33675e-15
6.29782e-16
-2.89906e-15
-1.81771e-14
-1.04245e-14
1.056e-15
2.11677e-14
-2.27122e-14
-2.1671e-14
0
-7.31836e-12
2.52158e-12
-5.15608e-13
1.74817e-13
-1.50701e-14
-3.06053e-14
-2.20767e-14
4.41277e-14
-4.43127e-15
-2.2379e-14
-4.52782e-15
-8.36781e-15
-2.08838e-14
3.88665e-14
-7.73965e-15
9.70616e-16
-2.16556e-16
2.02448e-15
4.54292e-14
0
9.26993e-12
-1.99225e-12
3.89379e-13
-1.00084e-13
4.95805e-14
-2.12212e-14
2.09151e-14
-3.36705e-14
-1.10464e-14
-6.25062e-15
4.48817e-14
-2.03846e-14
3.19949e-14
1.16167e-14
-7.42808e-15
1.8513e-15
1.84669e-16
-4.55716e-15
-1.65888e-14
-2.71051e-14
-4.55365e-12
6.03832e-13
-1.25748e-13
3.70809e-14
-3.43177e-14
2.95707e-14
-1.49647e-14
-5.01144e-14
-2.93252e-14
2.6236e-14
-2.81217e-14
7.64393e-14
-5.21654e-14
5.77646e-14
-2.00969e-14
-5.5359e-15
1.58648e-16
-6.55463e-15
1.92263e-14
0
-7.15573e-12
1.52727e-12
-3.29959e-13
1.31975e-13
-6.02628e-15
-9.96329e-15
9.13564e-14
6.56902e-14
-5.94695e-14
-1.86777e-14
-4.27997e-14
3.94535e-14
1.41781e-14
-1.434e-14
4.15179e-14
-7.6204e-14
4.35566e-14
1.40978e-14
-3.33958e-14
0
1.41488e-11
-2.18765e-12
4.2552e-13
-2.04824e-13
2.97046e-14
-1.77842e-14
-3.64061e-14
-4.44819e-14
3.3661e-14
2.56239e-14
3.67297e-14
1.47509e-14
-4.07924e-14
2.08521e-14
2.44267e-14
2.47206e-15
-2.82123e-14
-2.36519e-14
1.96682e-14
-2.71051e-14
-5.71917e-12
8.82735e-13
-1.14184e-13
9.41262e-14
-2.08545e-14
-2.50294e-14
4.76237e-14
3.43848e-14
-2.95887e-14
-7.21927e-15
-3.61612e-14
2.70389e-15
2.1826e-14
-7.4245e-16
-5.08598e-14
2.84193e-14
-1.98681e-15
-2.03004e-14
-9.92983e-15
0
-9.51387e-12
9.89974e-13
-2.89102e-13
1.29291e-13
-3.86459e-14
9.66531e-15
-2.07429e-14
-9.74587e-15
1.20364e-14
-1.25914e-14
5.04126e-14
-3.05089e-14
-2.58284e-14
1.80648e-14
-3.6155e-16
9.21891e-15
3.61647e-14
-1.57299e-14
-1.29913e-14
0
8.26704e-12
-1.24683e-12
3.25261e-13
-1.0842e-13
0
2.71051e-14
5.42101e-14
-2.71051e-14
0
-2.71051e-14
-2.71051e-14
0
-2.71051e-14
0
0
2.71051e-14
0
0
2.71051e-14
-2.71051e-14
)
;

boundaryField
{
    movingWall
    {
        type            extrapolatedCalculated;
        value           nonuniform List<scalar> 
20
(
8.26704e-12
-1.24683e-12
3.25261e-13
-1.0842e-13
0
2.71051e-14
5.42101e-14
-2.71051e-14
0
-2.71051e-14
-2.71051e-14
0
-2.71051e-14
0
0
2.71051e-14
0
0
2.71051e-14
-2.71051e-14
)
;
    }
    fixedWalls
    {
        type            extrapolatedCalculated;
        value           nonuniform List<scalar> 
60
(
1.14112e-11
-1.77538e-11
4.58075e-12
5.20417e-12
-7.99599e-12
8.23994e-12
1.02999e-12
-1.14112e-11
1.08149e-11
-2.54788e-12
-3.08998e-12
4.71628e-12
-7.31836e-12
9.26993e-12
-4.55365e-12
-7.15573e-12
1.41488e-11
-5.71917e-12
-9.51387e-12
8.26704e-12
0
0
0
-2.71051e-14
0
-2.71051e-14
0
0
0
2.71051e-14
-2.71051e-14
0
0
-2.71051e-14
0
0
-2.71051e-14
0
0
-2.71051e-14
1.14112e-11
-2.1019e-12
4.31441e-13
-1.49586e-13
1.7147e-14
-7.6207e-15
1.93796e-14
1.20332e-14
-1.11213e-14
-8.44834e-15
1.92592e-14
1.01636e-14
-6.48437e-14
3.75106e-14
2.05013e-15
1.0866e-14
4.83426e-15
-8.03213e-15
-6.60752e-15
0
)
;
    }
    frontAndBack
    {
        type            empty;
    }
}


// ************************************************************************* //
