/*--------------------------------*- C++ -*----------------------------------*\
| =========                 |                                                 |
| \\      /  F ield         | OpenFOAM: The Open Source CFD Toolbox           |
|  \\    /   O peration     | Version:  2506                                  |
|   \\  /    A nd           | Website:  www.openfoam.com                      |
|    \\/     M anipulation  |                                                 |
\*---------------------------------------------------------------------------*/
FoamFile
{
    version     2.0;
    format      ascii;
    arch        "LSB;label=32;scalar=64";
    class       volScalarField;
    location    "8.375";
    object      enstrophyField;
}
// * * * * * * * * * * * * * * * * * * * * * * * * * * * * * * * * * * * * * //

dimensions      [0 0 -2 0 0 0 0];

internalField   nonuniform List<scalar> 
400
(
2.9172e-23
4.87558e-23
2.0926e-24
1.45774e-25
2.16519e-28
2.57402e-28
5.00067e-28
2.21868e-29
8.69255e-32
4.63917e-30
1.34163e-27
9.70528e-28
8.63224e-28
2.99174e-29
1.61538e-28
2.06242e-30
7.16606e-28
1.54957e-27
7.46691e-31
4.46499e-30
8.08363e-25
8.29607e-26
1.57685e-26
6.83471e-28
4.4228e-27
1.3534e-27
4.29628e-30
1.65172e-27
1.82509e-27
1.83203e-27
1.85027e-29
1.94835e-28
2.34021e-27
2.45459e-28
4.59947e-29
2.48421e-28
6.21296e-28
2.252e-27
1.06348e-29
6.95495e-29
9.64951e-24
2.21188e-23
1.09888e-24
6.25239e-26
1.06725e-27
3.41101e-28
1.04518e-27
9.87111e-28
7.95107e-27
5.0837e-27
8.53077e-27
8.28288e-27
1.79933e-27
2.36925e-29
9.02088e-28
2.36411e-28
1.84368e-27
3.01366e-28
6.51316e-28
1.77014e-28
3.0014e-24
1.16849e-23
5.48294e-25
3.31479e-26
3.74517e-28
1.09272e-28
3.21658e-28
8.77264e-29
4.94169e-29
4.7073e-27
7.18233e-28
5.52931e-29
4.18584e-29
2.45476e-28
2.04491e-28
7.96202e-28
5.72399e-28
8.14608e-29
3.04688e-28
1.27092e-28
1.2764e-24
1.05651e-24
1.07477e-25
2.83525e-28
4.17393e-27
7.6827e-27
1.70366e-28
7.83052e-29
2.18136e-27
4.89099e-27
1.55878e-27
5.30811e-29
1.75089e-28
1.8906e-27
9.01619e-29
3.01208e-29
3.28727e-29
2.47371e-27
1.85465e-29
1.14978e-28
4.16517e-24
4.68611e-24
2.37385e-25
1.84685e-26
3.59136e-28
1.00556e-29
2.17705e-28
3.55485e-30
1.25858e-30
3.78274e-28
2.27845e-28
1.93542e-30
4.44224e-27
2.01411e-27
1.5546e-27
1.30373e-30
3.34006e-27
1.64485e-28
7.02379e-29
1.22046e-29
1.6688e-23
2.021e-23
1.15623e-24
6.18816e-26
3.56192e-27
1.8856e-28
4.2611e-28
7.35173e-28
3.19924e-29
7.00208e-30
2.50877e-30
3.9629e-28
1.53613e-27
6.56703e-27
8.22568e-28
5.74983e-29
2.6478e-29
3.98585e-27
5.44802e-31
4.32302e-28
1.64714e-24
4.76475e-24
2.24487e-25
1.2875e-26
1.69036e-27
1.25167e-27
4.41447e-28
5.80589e-28
5.67957e-30
1.77082e-27
1.57966e-33
2.5936e-30
3.88249e-28
9.57559e-28
6.60267e-28
1.31768e-27
3.25404e-27
4.85951e-30
7.69837e-29
3.25439e-29
3.1315e-24
5.54048e-24
3.21126e-25
3.06427e-26
4.02368e-28
1.32448e-27
1.26982e-27
1.96842e-28
3.31616e-29
6.24067e-31
2.57915e-29
2.46746e-27
3.74377e-27
2.31079e-28
1.91971e-29
1.81127e-28
4.04902e-27
3.82868e-27
2.03825e-28
1.04576e-29
1.37244e-23
1.93823e-23
1.16699e-24
2.56002e-26
1.27754e-26
2.00706e-27
8.51649e-27
5.46182e-27
1.54726e-27
2.05288e-27
1.08361e-29
3.60151e-30
2.32157e-27
3.6253e-27
4.97017e-28
3.71583e-28
6.23092e-28
1.10479e-27
7.49069e-29
1.79416e-28
1.96816e-23
1.53736e-23
7.60681e-25
4.63186e-26
9.94617e-28
9.20457e-28
1.26116e-26
5.34444e-28
3.9427e-27
3.60856e-28
2.08558e-28
2.75679e-28
1.00414e-27
6.38916e-28
7.53924e-28
8.82814e-29
2.58192e-28
2.81044e-28
5.22603e-28
2.00425e-29
1.14113e-23
6.38663e-24
3.16803e-25
2.01887e-26
4.2848e-29
2.25262e-27
8.93359e-29
2.8971e-27
1.68948e-28
4.59747e-27
4.88799e-27
4.17843e-27
7.45684e-27
4.57653e-27
7.5701e-28
3.90064e-28
1.45038e-27
8.0212e-28
4.50522e-28
2.58411e-28
1.93248e-26
3.99066e-25
6.27193e-26
2.17155e-27
3.20245e-27
1.32937e-28
1.90188e-27
1.53971e-27
4.50702e-27
1.16495e-27
3.01546e-28
5.79808e-29
1.45972e-29
1.36405e-29
2.75856e-29
1.41135e-29
6.80178e-30
1.24277e-30
2.97591e-29
3.85256e-28
9.65608e-24
4.16109e-24
2.58229e-25
3.08496e-27
7.86154e-27
2.71731e-28
2.3295e-27
1.33873e-28
6.97732e-31
2.26007e-28
5.56165e-29
3.30766e-27
3.43519e-27
1.07134e-27
1.65958e-28
3.09877e-28
3.47013e-30
2.44148e-29
3.52789e-28
1.06317e-28
2.08159e-23
2.62823e-23
1.71472e-24
2.03025e-26
3.34021e-26
2.88511e-27
6.05194e-27
2.25131e-28
1.51671e-27
1.70158e-27
1.28134e-27
4.56517e-27
3.85301e-27
1.86515e-27
6.32193e-28
5.28373e-28
1.2719e-27
4.78794e-29
6.59934e-30
6.75637e-28
1.07338e-23
2.4265e-23
1.28877e-24
7.00323e-26
5.34007e-27
3.05197e-28
5.33811e-34
2.3522e-29
8.3983e-30
2.88688e-27
3.34029e-27
4.27734e-27
1.36496e-27
1.57432e-27
4.57116e-29
7.50566e-29
1.3238e-27
1.52812e-30
4.67012e-28
2.45311e-28
4.60331e-27
2.97143e-25
2.78687e-27
2.26739e-26
7.18904e-27
6.85139e-27
9.97149e-27
5.35351e-27
3.2216e-27
2.44826e-27
1.25278e-26
2.26944e-27
1.55431e-27
1.35578e-27
1.48187e-28
1.02113e-28
1.15098e-27
3.418e-30
7.02734e-30
2.54697e-29
6.44981e-24
1.75565e-23
1.00859e-24
4.24236e-26
6.86943e-27
1.29785e-27
1.81876e-27
5.95303e-29
7.50931e-29
3.42065e-29
1.15727e-28
9.70605e-28
1.91309e-27
1.98965e-27
3.36455e-28
8.60728e-28
2.89293e-27
6.49772e-28
9.04375e-29
5.66213e-28
5.07093e-24
9.39884e-24
6.0234e-25
2.46386e-26
2.71865e-27
6.72712e-28
3.37947e-27
1.86165e-27
1.59353e-27
1.44274e-30
4.2263e-28
2.27051e-27
7.29522e-28
3.73936e-28
1.29993e-27
1.94489e-28
5.76818e-29
3.94978e-28
4.74039e-30
9.7976e-29
2.18586e-24
5.16113e-24
1.36266e-25
2.38071e-26
6.27554e-28
1.48965e-27
1.97202e-27
2.22398e-27
3.25735e-27
2.03411e-27
4.27544e-27
1.02859e-27
1.48836e-29
3.30477e-28
2.39765e-27
4.24678e-28
3.68472e-29
8.21325e-30
2.82419e-29
7.32797e-28
)
;

boundaryField
{
    movingWall
    {
        type            calculated;
        value           nonuniform List<scalar> 
20
(
8.15694e-24
8.19758e-24
1.41246e-27
1.12746e-25
5.66123e-26
9.87733e-26
1.10443e-25
1.3431e-25
1.19022e-25
6.65555e-26
5.18479e-26
4.56046e-26
2.99646e-26
2.43429e-26
1.09912e-26
9.14837e-27
3.21869e-27
8.21325e-30
2.82419e-29
1.54495e-27
)
;
    }
    fixedWalls
    {
        type            calculated;
        value           nonuniform List<scalar> 
60
(
8.71813e-22
3.56349e-24
4.07815e-22
2.06444e-22
2.25269e-23
9.1842e-23
3.91998e-22
8.66615e-23
1.04348e-22
3.65388e-22
2.74275e-22
1.18584e-22
9.57435e-24
8.3655e-23
4.98464e-22
4.40901e-22
5.25257e-24
3.24894e-22
1.81884e-22
8.6038e-23
1.18315e-30
5.33652e-29
2.78551e-28
4.94258e-29
4.78742e-28
1.50142e-28
3.51453e-28
3.27458e-29
2.36377e-29
6.02197e-28
6.51215e-29
2.68672e-28
2.32033e-28
1.12937e-28
9.10246e-28
1.23932e-28
7.01485e-29
8.09939e-28
9.1673e-31
1.08242e-27
3.24157e-23
5.88242e-23
1.09262e-24
2.70033e-25
7.19039e-27
2.00651e-26
4.35596e-27
4.55814e-27
3.90736e-27
4.63917e-30
2.90387e-30
5.15386e-29
2.90004e-27
4.66125e-27
1.61538e-28
2.06242e-30
5.78106e-29
4.07503e-27
9.32553e-28
4.46499e-30
)
;
    }
    frontAndBack
    {
        type            empty;
    }
}


// ************************************************************************* //
