/*--------------------------------*- C++ -*----------------------------------*\
| =========                 |                                                 |
| \\      /  F ield         | OpenFOAM: The Open Source CFD Toolbox           |
|  \\    /   O peration     | Version:  2506                                  |
|   \\  /    A nd           | Website:  www.openfoam.com                      |
|    \\/     M anipulation  |                                                 |
\*---------------------------------------------------------------------------*/
FoamFile
{
    version     2.0;
    format      ascii;
    arch        "LSB;label=32;scalar=64";
    class       volScalarField;
    location    "8.375";
    object      flowTypeField;
}
// * * * * * * * * * * * * * * * * * * * * * * * * * * * * * * * * * * * * * //

dimensions      [0 0 0 0 0 0 0];

internalField   nonuniform List<scalar> 
400
(
0.410044
0.0424439
0.0635723
-0.0300361
0.804215
0.388181
0.0567289
0.440733
0.95148
0.853091
0.0950515
0.196471
0.420335
0.81185
0.00617989
0.710954
-0.35325
-0.0154048
0.680082
0.151903
0.905707
0.861293
0.774822
0.761
0.220062
0.0398457
0.830467
0.112084
-0.0737375
-0.108059
0.0564763
0.16706
0.283158
0.200028
0.772462
0.577514
-0.18398
0.129344
0.876163
0.106321
0.406786
0.0884117
0.015656
0.0314288
0.398042
0.525038
-0.0707698
0.257182
-0.159161
-0.231937
-0.189406
-0.136903
-0.0983714
0.686251
0.217276
0.0151635
-0.117574
0.299405
0.0804096
0.00393861
0.620303
0.112019
0.145546
0.0517988
0.696114
0.71005
0.433001
0.814891
0.78596
-0.106735
0.0604816
0.588273
0.30057
0.389187
0.381736
0.326228
-0.232691
0.707738
0.323787
0.534801
0.775578
0.412525
0.262456
0.785257
-0.32068
-0.00782719
0.316694
0.369874
-0.038454
-0.209993
0.0755964
0.604331
0.33037
0.0455614
0.527348
0.0355343
0.0391478
0.102845
0.255212
3.58165e-06
0.62046
0.152309
0.114844
-0.0135517
0.224963
0.817334
0.343458
0.698129
0.945377
0.0348963
0.210703
0.933474
-0.141314
-0.135282
-0.0281562
0.804802
0.0211577
0.47798
0.0715403
0.757508
-0.0136339
0.0524063
-0.135652
-0.0242477
-0.00349874
0.378468
0.0784416
-0.278372
0.650226
0.332068
0.0925146
0.611291
-0.0220245
0.0543067
-0.375587
0.745593
0.821759
-0.0565859
0.65723
-0.0785159
0.791143
0.219095
0.242174
0.355264
0.191891
-0.60315
0.0595
0.396258
0.903319
-0.0767913
0.902211
0.92575
0.256496
-0.0371442
-0.263211
0.243066
0.0130603
0.910204
0.0416202
0.01682
0.713622
0.189245
0.108624
0.0166028
0.539108
-0.139505
0.158649
0.362169
0.000137015
0.912459
0.703421
-0.111846
-0.0453334
0.582506
0.858179
0.490989
-0.465795
0.00332258
0.0202643
0.357956
0.0688778
0.0447011
-0.0826131
0.29869
-0.661751
0.221257
0.107204
0.134213
0.0799295
0.167458
0.870959
0.688492
0.135688
-0.292334
0.169354
0.367667
-0.231095
-0.0349503
0.717292
0.610667
-0.0767988
-0.0649662
-0.158146
-0.193635
0.337802
0.28887
-0.16804
0.203336
-0.0335762
0.532484
0.377099
0.377459
0.251588
-0.136345
0.407894
0.0238462
0.419186
0.346499
-0.049966
0.858038
0.100716
-0.0490367
-0.201067
-0.227312
0.872142
0.197791
0.218012
-0.389968
0.474844
-0.0875277
-0.185411
-0.118388
-0.124763
-0.168712
0.283479
0.0703498
0.0269471
0.041574
0.236156
0.187654
0.956519
0.537374
0.240766
0.556393
-0.251438
0.276511
-0.113443
0.0901843
-0.0417905
0.253341
0.123375
0.600496
0.62764
0.869375
0.733148
0.000113945
0.371816
0.317558
0.810232
-0.0083338
0.491055
0.109816
-0.032315
0.397908
-0.0837464
0.606785
0.267501
0.68193
0.925452
0.103349
0.834433
0.0103639
0.032463
0.144238
0.319551
0.0799059
0.00895886
0.232081
0.0555539
0.465047
0.18081
0.0401902
-0.128568
0.408355
-0.538209
0.0995628
0.0280783
0.576696
-0.152394
-0.192216
0.161135
0.166955
0.0989417
0.194029
-0.154297
-0.145179
0.068722
0.0186846
0.514791
-0.345973
0.452443
0.0748896
0.0158618
0.0254919
-0.175343
0.0994783
0.990767
0.880665
0.883372
-0.186219
0.00795494
0.062149
0.151944
0.0172515
0.779416
0.751043
0.302635
0.88474
0.18858
0.178559
0.990721
0.715779
0.880257
0.0365201
0.140571
-0.0761477
0.033886
0.138161
0.174813
-0.109103
-0.140461
-0.23807
0.0767864
0.04887
0.513979
0.0157281
0.203355
0.864288
0.796119
0.670045
0.510838
0.10495
-0.00902216
0.100056
-0.542025
0.154584
0.198788
0.669258
0.536193
0.155882
0.667245
0.209537
-0.123937
-0.154556
0.513325
-0.012837
-0.397654
0.0827463
0.0157976
-0.222639
0.655624
0.161804
0.0321359
0.15894
-0.19122
0.324123
0.00396029
-0.06793
0.0843257
0.558483
0.465869
0.152461
0.0531419
0.271486
0.0607029
0.288053
0.753361
0.185092
0.227793
0.471842
0.711254
0.132063
0.297312
-0.161067
0.352641
0.104507
0.332916
0.217798
0.0697234
-0.0182309
-0.0709299
0.162621
0.882375
0.455814
-0.0150304
0.0977408
0.673074
0.80949
0.684331
0.0735743
)
;

boundaryField
{
    movingWall
    {
        type            calculated;
        value           nonuniform List<scalar> 
20
(
0.658385
0.0595638
0.931681
-0.354635
0.0531224
0.00565673
0.0437311
0.0302002
0.00728867
-0.0193066
-0.0313543
0.0290386
0.108515
0.0631085
-0.0189585
-0.00867922
0.19723
0.888475
0.734287
0.0183379
)
;
    }
    fixedWalls
    {
        type            calculated;
        value           nonuniform List<scalar> 
60
(
0.049964
0.814123
0.0678914
0.120325
0.393555
0.14204
0.0111167
0.244119
0.191027
0.0176794
-0.075251
-0.0587646
0.517373
0.0880686
0.00604904
0.0683451
0.739699
0.088601
0.150362
0.179412
0.300609
0.709563
0.00252876
0.758617
0.381649
0.57483
0.024674
0.0167239
0.239558
0.576966
0.84382
0.172569
0.20968
0.612011
-0.557513
0.408742
0.674709
-0.450635
0.925952
0.165449
0.766271
0.177161
0.473991
-0.098995
0.528938
-0.0770806
0.127472
-0.0280703
0.102345
0.874265
0.82464
0.450158
0.258572
0.109781
0.165963
0.908074
0.0726949
-0.015579
0.0514567
0.0874187
)
;
    }
    frontAndBack
    {
        type            empty;
    }
}


// ************************************************************************* //
