/*--------------------------------*- C++ -*----------------------------------*\
| =========                 |                                                 |
| \\      /  F ield         | OpenFOAM: The Open Source CFD Toolbox           |
|  \\    /   O peration     | Version:  2506                                  |
|   \\  /    A nd           | Website:  www.openfoam.com                      |
|    \\/     M anipulation  |                                                 |
\*---------------------------------------------------------------------------*/
FoamFile
{
    version     2.0;
    format      ascii;
    arch        "LSB;label=32;scalar=64";
    class       surfaceScalarField;
    location    "8.375";
    object      fluxField;
}
// * * * * * * * * * * * * * * * * * * * * * * * * * * * * * * * * * * * * * //

dimensions      [0 3 -1 0 0 0 0];

oriented        oriented;

internalField   nonuniform List<scalar> 
760
(
-5e-05
2.78004e-18
-5e-05
-5.39027e-19
-5e-05
1.48518e-19
-5e-05
-1.70678e-20
-5e-05
1.1063e-20
-5e-05
4.87109e-21
-5e-05
4.84491e-21
-5e-05
3.0083e-21
-5e-05
3.99595e-21
-5e-05
4.66418e-21
-5e-05
4.8148e-21
-5e-05
2.5409e-21
-5e-05
-2.65839e-21
-5e-05
-4.17487e-21
-5e-05
5.12532e-22
-5e-05
2.71649e-21
-5e-05
1.20857e-21
-5e-05
-2.00803e-21
-5e-05
-1.65188e-21
-5.49548e-22
-5e-05
-1.76379e-18
-5e-05
4.00641e-19
-5e-05
-8.08672e-20
-5e-05
2.69826e-20
-5e-05
-1.70498e-21
-5e-05
5.06386e-21
-5e-05
4.27898e-21
-5e-05
8.98488e-21
-5e-05
7.53983e-21
-5e-05
6.11566e-21
-5e-05
4.24059e-21
-5e-05
-9.55048e-22
-5e-05
-5.76638e-21
-5e-05
-5.95059e-21
-5e-05
-2.80836e-21
-5e-05
-6.19182e-22
-5e-05
3.83153e-21
-5e-05
-1.02712e-21
-5e-05
-5.53154e-21
-2.12088e-21
-5e-05
-4.98034e-19
-5e-05
8.00454e-20
-5e-05
-2.34814e-20
-5e-05
5.1005e-21
-5e-05
5.54e-22
-5e-05
2.6075e-22
-5e-05
3.38794e-21
-5e-05
1.12555e-20
-5e-05
9.29721e-21
-5e-05
4.34928e-21
-5e-05
4.8918e-22
-5e-05
-3.89955e-21
-5e-05
-7.21178e-21
-5e-05
-7.63164e-21
-5e-05
-4.25395e-21
-5e-05
3.57818e-22
-5e-05
4.38214e-21
-5e-05
3.03765e-22
-5e-05
-4.94653e-21
-2.54785e-21
-5e-05
9.87684e-19
-5e-05
-2.25729e-19
-5e-05
4.76619e-20
-5e-05
-1.20792e-20
-5e-05
2.79772e-21
-5e-05
-7.88171e-21
-5e-05
-4.78234e-21
-5e-05
6.2073e-22
-5e-05
1.81106e-21
-5e-05
1.09554e-21
-5e-05
2.27981e-21
-5e-05
-1.19711e-21
-5e-05
-4.54958e-21
-5e-05
-5.58253e-21
-5e-05
-1.49232e-21
-5e-05
2.83041e-21
-5e-05
3.64804e-21
-5e-05
-8.79136e-22
-5e-05
-3.57493e-21
-3.00662e-21
-5e-05
-1.231e-18
-5e-05
2.52306e-19
-5e-05
-6.15861e-20
-5e-05
1.15732e-20
-5e-05
-8.09172e-22
-5e-05
-4.41613e-21
-5e-05
-5.81457e-21
-5e-05
-3.81425e-21
-5e-05
-2.01937e-21
-5e-05
-4.57417e-22
-5e-05
2.47791e-21
-5e-05
-1.49069e-21
-5e-05
-2.21434e-21
-5e-05
-3.53101e-22
-5e-05
1.92053e-21
-5e-05
3.39155e-21
-5e-05
4.26461e-21
-5e-05
1.46866e-21
-5e-05
-2.00922e-21
-3.017e-21
-5e-05
9.02933e-19
-5e-05
-1.80191e-19
-5e-05
4.49855e-20
-5e-05
-6.16182e-21
-5e-05
5.08297e-21
-5e-05
1.46247e-21
-5e-05
-8.93066e-22
-5e-05
-6.19109e-22
-5e-05
2.58354e-21
-5e-05
1.77729e-21
-5e-05
1.74808e-21
-5e-05
-2.22247e-22
-5e-05
9.94284e-22
-5e-05
2.7089e-21
-5e-05
1.76288e-21
-5e-05
-2.6737e-22
-5e-05
-5.14338e-22
-5e-05
1.6561e-21
-5e-05
-7.63916e-22
-1.046e-21
-5e-05
8.54324e-19
-5e-05
-1.55157e-19
-5e-05
4.34301e-20
-5e-05
-3.48743e-21
-5e-05
2.37343e-21
-5e-05
3.07727e-21
-5e-05
3.25064e-21
-5e-05
1.90322e-21
-5e-05
4.31789e-21
-5e-05
3.0604e-21
-5e-05
2.05696e-21
-5e-05
2.51445e-21
-5e-05
1.22564e-21
-5e-05
2.01984e-21
-5e-05
3.84397e-21
-5e-05
9.64556e-22
-5e-05
-4.89463e-21
-5e-05
-3.8318e-21
-5e-05
-2.12295e-21
-4.6875e-22
-5e-05
-1.81212e-18
-5e-05
3.87124e-19
-5e-05
-9.29707e-20
-5e-05
1.92586e-20
-5e-05
-4.5165e-21
-5e-05
5.03828e-21
-5e-05
7.30636e-21
-5e-05
3.43233e-21
-5e-05
6.03241e-22
-5e-05
5.53766e-22
-5e-05
-4.42836e-22
-5e-05
2.36335e-21
-5e-05
2.99749e-21
-5e-05
3.47703e-21
-5e-05
5.75994e-21
-5e-05
7.33463e-21
-5e-05
-2.31578e-21
-5e-05
-8.22574e-21
-5e-05
-3.08419e-21
-7.6061e-23
-5e-05
7.64639e-19
-5e-05
-1.68592e-19
-5e-05
3.35339e-20
-5e-05
-7.3384e-21
-5e-05
4.97351e-21
-5e-05
5.83385e-21
-5e-05
6.57474e-21
-5e-05
3.6263e-21
-5e-05
6.38382e-22
-5e-05
1.94488e-21
-5e-05
3.38422e-21
-5e-05
4.90425e-21
-5e-05
6.72297e-21
-5e-05
2.72548e-21
-5e-05
-2.41392e-21
-5e-05
3.16875e-21
-5e-05
2.38332e-21
-5e-05
-3.72692e-21
-5e-05
-4.13976e-21
-1.73929e-21
-5e-05
3.57869e-19
-5e-05
-8.80345e-20
-5e-05
2.49635e-20
-5e-05
-9.07046e-22
-5e-05
1.06042e-20
-5e-05
7.57556e-21
-5e-05
2.16449e-21
-5e-05
4.98638e-22
-5e-05
-2.08701e-22
-5e-05
-1.01795e-21
-5e-05
2.31793e-21
-5e-05
1.81629e-21
-5e-05
2.55297e-21
-5e-05
6.82732e-22
-5e-05
-3.0217e-21
-5e-05
-3.35457e-21
-5e-05
4.71649e-22
-5e-05
-2.10258e-22
-5e-05
-5.3528e-21
-4.57637e-21
-5e-05
-5.04696e-19
-5e-05
1.16967e-19
-5e-05
-1.87093e-20
-5e-05
7.60711e-21
-5e-05
7.14624e-21
-5e-05
5.54747e-21
-5e-05
-3.17253e-23
-5e-05
-3.61744e-21
-5e-05
-6.90632e-21
-5e-05
-7.66936e-21
-5e-05
-3.20246e-21
-5e-05
-1.60936e-21
-5e-05
2.28716e-22
-5e-05
4.16503e-21
-5e-05
5.97826e-21
-5e-05
-2.59139e-21
-5e-05
-4.32636e-21
-5e-05
-1.58401e-21
-5e-05
-1.93855e-21
-2.16207e-21
-5e-05
5.09449e-19
-5e-05
-8.25551e-20
-5e-05
2.22608e-20
-5e-05
-5.98125e-21
-5e-05
-3.79247e-21
-5e-05
-3.34582e-21
-5e-05
-2.94383e-21
-5e-05
-4.82139e-21
-5e-05
-8.10059e-21
-5e-05
-3.59537e-21
-5e-05
8.34187e-22
-5e-05
1.57445e-22
-5e-05
-7.24766e-22
-5e-05
2.23199e-21
-5e-05
4.17013e-21
-5e-05
2.64e-22
-5e-05
-1.48434e-21
-5e-05
1.09821e-21
-5e-05
1.3585e-21
-1.02408e-22
-5e-05
-9.92137e-19
-5e-05
2.0349e-19
-5e-05
-4.75867e-20
-5e-05
9.82295e-21
-5e-05
-1.05438e-20
-5e-05
-7.65132e-21
-5e-05
-5.51918e-21
-5e-05
-2.52061e-21
-5e-05
-1.10782e-21
-5e-05
1.18151e-21
-5e-05
-1.13196e-21
-5e-05
-2.09195e-21
-5e-05
-5.22095e-21
-5e-05
-3.8359e-21
-5e-05
-1.93491e-21
-5e-05
2.42654e-22
-5e-05
-5.41391e-23
-5e-05
5.06119e-22
-5e-05
-2.19523e-21
-1.287e-21
-5e-05
1.28354e-18
-5e-05
-2.94775e-19
-5e-05
6.34634e-20
-5e-05
-1.14686e-20
-5e-05
5.61886e-21
-5e-05
1.47097e-21
-5e-05
5.22876e-21
-5e-05
5.13489e-21
-5e-05
4.01466e-21
-5e-05
-1.56266e-21
-5e-05
-9.10836e-21
-5e-05
-5.09614e-21
-5e-05
-5.5538e-21
-5e-05
-3.87209e-21
-5e-05
-1.85702e-21
-5e-05
4.62824e-22
-5e-05
4.61674e-23
-5e-05
-1.13929e-21
-5e-05
-4.1472e-21
-1.91196e-21
-5e-05
5.6294e-21
-5e-05
1.88016e-21
-5e-05
-4.33195e-21
-5e-05
2.49395e-21
-5e-05
4.97311e-21
-5e-05
7.39269e-21
-5e-05
9.81135e-21
-5e-05
7.8002e-21
-5e-05
6.22122e-21
-5e-05
-2.17264e-22
-5e-05
-7.03043e-21
-5e-05
-7.99523e-21
-5e-05
-6.2651e-21
-5e-05
-5.88765e-21
-5e-05
-5.02422e-21
-5e-05
-1.38397e-21
-5e-05
3.96619e-23
-5e-05
-1.63866e-21
-5e-05
-1.9697e-21
-1.68272e-21
-5e-05
-1.70589e-18
-5e-05
3.61488e-19
-5e-05
-7.57134e-20
-5e-05
1.94412e-20
-5e-05
-1.50657e-21
-5e-05
4.28544e-21
-5e-05
2.51032e-21
-5e-05
2.87003e-21
-5e-05
5.46141e-21
-5e-05
2.10684e-21
-5e-05
-3.92365e-21
-5e-05
-1.04654e-20
-5e-05
-1.0008e-20
-5e-05
-1.03613e-20
-5e-05
-9.94931e-21
-5e-05
-5.49848e-21
-5e-05
-2.66338e-21
-5e-05
-3.2518e-21
-5e-05
-1.57268e-21
-1.45038e-21
-5e-05
1.94992e-18
-5e-05
-4.11387e-19
-5e-05
1.0638e-19
-5e-05
-1.73246e-20
-5e-05
7.42615e-21
-5e-05
2.33022e-21
-5e-05
4.45099e-21
-5e-05
2.43206e-21
-5e-05
1.63898e-21
-5e-05
-3.70296e-22
-5e-05
-4.3701e-21
-5e-05
-9.86479e-21
-5e-05
-1.01981e-20
-5e-05
-8.3395e-21
-5e-05
-7.44585e-21
-5e-05
-6.15825e-21
-5e-05
-2.76818e-22
-5e-05
8.63295e-22
-5e-05
-1.85921e-21
-1.56171e-21
-5e-05
4.70595e-19
-5e-05
-9.10243e-20
-5e-05
1.88878e-20
-5e-05
-3.5735e-21
-5e-05
1.56263e-21
-5e-05
5.18923e-22
-5e-05
5.12966e-21
-5e-05
1.81994e-21
-5e-05
-6.20903e-22
-5e-05
-1.80482e-21
-5e-05
-2.26404e-21
-5e-05
-6.10029e-21
-5e-05
-8.09604e-21
-5e-05
-6.96188e-21
-5e-05
-5.93868e-21
-5e-05
-6.44771e-21
-5e-05
-4.96702e-22
-5e-05
1.70116e-21
-5e-05
-2.48246e-21
-2.43085e-21
-5e-05
-2.10169e-18
-5e-05
4.23676e-19
-5e-05
-1.06157e-19
-5e-05
1.87702e-20
-5e-05
-2.88522e-21
-5e-05
2.41633e-21
-5e-05
1.59054e-21
-5e-05
-2.43647e-21
-5e-05
-3.76716e-21
-5e-05
-3.14784e-21
-5e-05
-9.4937e-22
-5e-05
-8.50953e-22
-5e-05
-6.4571e-21
-5e-05
-9.03633e-21
-5e-05
-6.86665e-21
-5e-05
-4.47154e-21
-5e-05
-4.51135e-21
-5e-05
-3.93249e-21
-5e-05
-3.24784e-21
-2.82337e-21
-5e-05
-5e-05
-5e-05
-5e-05
-5e-05
-5e-05
-5e-05
-5e-05
-5e-05
-5e-05
-5e-05
-5e-05
-5e-05
-5e-05
-5e-05
-5e-05
-5e-05
-5e-05
-5e-05
)
;

boundaryField
{
    movingWall
    {
        type            calculated;
        value           uniform -0;
    }
    fixedWalls
    {
        type            calculated;
        value           nonuniform List<scalar> 
60
(
5e-05
5e-05
5e-05
5e-05
5e-05
5e-05
5e-05
5e-05
5e-05
5e-05
5e-05
5e-05
5e-05
5e-05
5e-05
5e-05
5e-05
5e-05
5e-05
5e-05
-5e-05
-5e-05
-5e-05
-5e-05
-5e-05
-5e-05
-5e-05
-5e-05
-5e-05
-5e-05
-5e-05
-5e-05
-5e-05
-5e-05
-5e-05
-5e-05
-5e-05
-5e-05
-5e-05
-5e-05
0
0
0
0
0
0
0
0
0
0
0
0
0
0
0
0
0
0
0
0
)
;
    }
    frontAndBack
    {
        type            empty;
    }
}


// ************************************************************************* //
