/*--------------------------------*- C++ -*----------------------------------*\
| =========                 |                                                 |
| \\      /  F ield         | OpenFOAM: The Open Source CFD Toolbox           |
|  \\    /   O peration     | Version:  2506                                  |
|   \\  /    A nd           | Website:  www.openfoam.com                      |
|    \\/     M anipulation  |                                                 |
\*---------------------------------------------------------------------------*/
FoamFile
{
    version     2.0;
    format      ascii;
    arch        "LSB;label=32;scalar=64";
    class       volTensorField;
    location    "8.375";
    object      gradU;
}
// * * * * * * * * * * * * * * * * * * * * * * * * * * * * * * * * * * * * * //

dimensions      [0 0 -1 0 0 0 0];

internalField   nonuniform List<tensor> 
400
(
(2.98156e-13 8.45148e-12 0 8.13152e-13 1.11201e-11 0 0 0 0)
(5.42101e-14 -1.00916e-11 0 -2.1684e-13 -2.15611e-12 0 0 0 0)
(-1.6263e-13 2.09998e-12 0 5.42101e-14 5.94071e-13 0 0 0 0)
(-8.13152e-14 -5.12847e-13 0 2.71051e-14 -6.82712e-14 0 0 0 0)
(-2.71051e-14 1.02125e-13 0 8.13152e-14 4.42521e-14 0 0 0 0)
(-2.71051e-14 -2.26893e-14 0 0 1.94844e-14 0 0 0 0)
(0 -4.51984e-15 0 2.71051e-14 1.93796e-14 0 0 0 0)
(0 -6.66135e-15 0 0 1.20332e-14 0 0 0 0)
(-2.71051e-14 4.16954e-16 0 0 1.59838e-14 0 0 0 0)
(-2.71051e-14 -3.04604e-15 0 0 1.86567e-14 0 0 0 0)
(0 -2.40992e-15 0 -5.42101e-14 1.92592e-14 0 0 0 0)
(0 -1.01527e-14 0 -5.42101e-14 1.01636e-14 0 0 0 0)
(-5.42101e-14 -1.26595e-14 0 -5.42101e-14 -1.06336e-14 0 0 0 0)
(5.42101e-14 7.73529e-15 0 0 -1.66995e-14 0 0 0 0)
(0 1.79743e-14 0 0 2.05013e-15 0 0 0 0)
(0 -2.03097e-15 0 0 1.0866e-14 0 0 0 0)
(0 -1.07527e-14 0 2.71051e-14 4.83426e-15 0 0 0 0)
(0 1.45989e-15 0 -5.42101e-14 -8.03213e-15 0 0 0 0)
(0 1.22204e-15 0 0 -6.60752e-15 0 0 0 0)
(0 -2.98831e-15 0 0 -2.19819e-15 0 0 0 0)
(4.06576e-13 5.12564e-13 0 -7.58942e-13 -1.81753e-11 0 0 0 0)
(-8.67362e-13 -4.34439e-13 0 -2.71051e-14 3.75867e-12 0 0 0 0)
(3.52366e-13 -1.21485e-14 0 -1.89735e-13 -9.1754e-13 0 0 0 0)
(8.13152e-14 -3.69722e-14 0 0 1.76201e-13 0 0 0 0)
(-2.71051e-14 -1.43691e-14 0 -1.0842e-13 -5.1072e-14 0 0 0 0)
(0 -2.18315e-15 0 -5.42101e-14 7.7107e-16 0 0 0 0)
(2.71051e-14 -2.93131e-15 0 0 -2.2637e-15 0 0 0 0)
(-2.71051e-14 3.26551e-15 0 -5.42101e-14 2.39063e-14 0 0 0 0)
(0 6.20655e-15 0 -5.42101e-14 1.41755e-14 0 0 0 0)
(0 6.32145e-15 0 -5.42101e-14 5.80591e-15 0 0 0 0)
(0 -6.08321e-15 0 0 -2.29682e-15 0 0 0 0)
(0 -1.97401e-14 0 0 -1.39838e-14 0 0 0 0)
(8.13152e-14 -1.42035e-14 0 5.42101e-14 -1.2432e-14 0 0 0 0)
(0 4.94839e-15 0 2.71051e-14 -7.10289e-15 0 0 0 0)
(-5.42101e-14 9.59111e-15 0 0 -1.32836e-14 0 0 0 0)
(5.42101e-14 4.81511e-15 0 2.71051e-14 -1.33427e-14 0 0 0 0)
(0 -8.14535e-15 0 2.71051e-14 1.04918e-14 0 0 0 0)
(-5.42101e-14 -1.29017e-14 0 5.42101e-14 3.92366e-15 0 0 0 0)
(5.42101e-14 4.6119e-15 0 0 -1.55186e-14 0 0 0 0)
(0 1.1794e-14 0 0 -6.28532e-15 0 0 0 0)
(-4.87891e-13 -5.96516e-12 0 -1.57209e-12 5.06303e-12 0 0 0 0)
(6.23416e-13 7.16613e-12 0 5.14996e-13 -1.28238e-12 0 0 0 0)
(-1.35525e-13 -1.48249e-12 0 0 2.29543e-13 0 0 0 0)
(2.71051e-14 3.53621e-13 0 0 -8.75282e-14 0 0 0 0)
(-2.71051e-14 -7.33057e-14 0 -2.71051e-14 9.03591e-15 0 0 0 0)
(5.42101e-14 2.6119e-14 0 0 -1.92124e-14 0 0 0 0)
(-2.71051e-14 1.86154e-14 0 -2.71051e-14 -3.56417e-15 0 0 0 0)
(-2.71051e-14 9.77789e-15 0 5.42101e-14 9.08256e-15 0 0 0 0)
(0 -1.76835e-14 0 1.0842e-13 7.02952e-15 0 0 0 0)
(0 -1.95184e-14 0 8.13152e-14 -7.06551e-15 0 0 0 0)
(0 -2.21996e-14 0 1.0842e-13 -1.50057e-14 0 0 0 0)
(2.71051e-14 -2.02878e-14 0 1.0842e-13 -1.1778e-14 0 0 0 0)
(0 -5.77866e-15 0 5.42101e-14 -5.78159e-15 0 0 0 0)
(2.71051e-14 6.88367e-15 0 0 -6.72418e-15 0 0 0 0)
(0 1.17345e-14 0 5.42101e-14 -5.78235e-15 0 0 0 0)
(0 2.17445e-14 0 0 3.908e-15 0 0 0 0)
(0 6.51361e-15 0 -5.42101e-14 2.20244e-15 0 0 0 0)
(-2.71051e-14 -2.45506e-14 0 0 5.32353e-15 0 0 0 0)
(-2.71051e-14 -8.98694e-15 0 2.71051e-14 2.34004e-15 0 0 0 0)
(0 1.88156e-14 0 0 -1.7079e-15 0 0 0 0)
(-7.31836e-13 4.29321e-12 0 1.84314e-12 5.94287e-12 0 0 0 0)
(7.58942e-13 -5.26792e-12 0 -4.33681e-13 -1.2231e-12 0 0 0 0)
(-1.89735e-13 1.18271e-12 0 1.35525e-13 2.84573e-13 0 0 0 0)
(5.42101e-14 -2.5748e-13 0 0 -6.8719e-14 0 0 0 0)
(-5.42101e-14 5.39467e-14 0 8.13152e-14 8.97489e-15 0 0 0 0)
(5.42101e-14 -1.47832e-14 0 0 -3.25699e-14 0 0 0 0)
(2.71051e-14 2.53637e-14 0 0 -3.26811e-14 0 0 0 0)
(8.13152e-14 1.38592e-14 0 2.71051e-14 -4.25392e-14 0 0 0 0)
(5.42101e-14 -9.94152e-15 0 0 -2.99446e-14 0 0 0 0)
(2.71051e-14 -1.57137e-14 0 8.13152e-14 -1.30149e-14 0 0 0 0)
(-2.71051e-14 -1.07957e-14 0 2.71051e-14 7.16251e-15 0 0 0 0)
(-2.71051e-14 -1.0516e-14 0 0 1.08097e-14 0 0 0 0)
(0 -9.14969e-15 0 0 1.06488e-14 0 0 0 0)
(-2.71051e-14 4.94763e-15 0 2.71051e-14 8.19641e-15 0 0 0 0)
(-2.71051e-14 2.02233e-14 0 0 1.10465e-14 0 0 0 0)
(-5.42101e-14 1.27999e-14 0 -2.71051e-14 9.89036e-15 0 0 0 0)
(0 -6.72982e-15 0 2.71051e-14 -2.93638e-15 0 0 0 0)
(5.42101e-14 -1.27641e-14 0 0 -4.7316e-15 0 0 0 0)
(2.71051e-14 -2.41953e-15 0 -2.71051e-14 5.48639e-15 0 0 0 0)
(-2.71051e-14 1.11619e-14 0 2.71051e-14 -1.83506e-15 0 0 0 0)
(8.94467e-13 -1.24538e-12 0 3.52366e-13 -8.87474e-12 0 0 0 0)
(-1.11131e-12 1.50783e-12 0 5.42101e-14 1.91214e-12 0 0 0 0)
(3.25261e-13 -3.28107e-13 0 1.35525e-13 -4.36992e-13 0 0 0 0)
(-5.42101e-14 7.80229e-14 0 5.42101e-14 9.46096e-14 0 0 0 0)
(2.71051e-14 -3.71566e-14 0 5.42101e-14 -1.44276e-14 0 0 0 0)
(-5.42101e-14 -1.5537e-14 0 1.0842e-13 1.38623e-14 0 0 0 0)
(0 8.6461e-15 0 2.71051e-14 -4.12891e-15 0 0 0 0)
(0 1.25144e-14 0 0 -1.77399e-14 0 0 0 0)
(2.71051e-14 1.18408e-14 0 -5.42101e-14 -1.53217e-14 0 0 0 0)
(0 1.75887e-14 0 -8.13152e-14 -6.21183e-15 0 0 0 0)
(-2.71051e-14 1.62508e-15 0 -5.42101e-14 7.92399e-16 0 0 0 0)
(0 -1.68015e-14 0 -2.71051e-14 -1.17431e-15 0 0 0 0)
(0 -8.392e-15 0 -2.71051e-14 9.34095e-15 0 0 0 0)
(2.71051e-14 7.2814e-15 0 -5.42101e-14 2.09177e-14 0 0 0 0)
(-2.71051e-14 1.34285e-14 0 0 1.36514e-14 0 0 0 0)
(0 7.76155e-15 0 0 2.24458e-15 0 0 0 0)
(0 -8.10835e-15 0 0 2.46627e-15 0 0 0 0)
(-5.42101e-14 -1.61278e-14 0 5.42101e-14 9.39119e-15 0 0 0 0)
(0 -6.0904e-15 0 0 6.26283e-15 0 0 0 0)
(0 1.51643e-14 0 0 -4.15219e-17 0 0 0 0)
(-2.98156e-13 -2.66939e-12 0 2.1684e-13 8.53573e-12 0 0 0 0)
(5.42101e-13 3.16983e-12 0 1.0842e-13 -1.72999e-12 0 0 0 0)
(-1.6263e-13 -6.34826e-13 0 5.42101e-14 4.26286e-13 0 0 0 0)
(-5.42101e-14 1.65085e-13 0 -2.71051e-14 -7.09399e-14 0 0 0 0)
(0 -2.68006e-14 0 0 2.35686e-14 0 0 0 0)
(-2.71051e-14 -4.48456e-15 0 0 2.35144e-14 0 0 0 0)
(0 -6.23857e-15 0 -2.71051e-14 1.9686e-14 0 0 0 0)
(0 2.6664e-15 0 0 1.27806e-14 0 0 0 0)
(-5.42101e-14 1.58656e-15 0 0 1.84116e-14 0 0 0 0)
(0 4.00375e-16 0 -2.71051e-14 8.93884e-15 0 0 0 0)
(0 -5.75817e-15 0 -2.71051e-14 -2.91931e-15 0 0 0 0)
(5.42101e-14 -1.96745e-15 0 0 5.07377e-15 0 0 0 0)
(0 1.29424e-14 0 -8.13152e-14 1.28345e-14 0 0 0 0)
(0 9.25809e-15 0 -5.42101e-14 1.2248e-14 0 0 0 0)
(0 1.55014e-15 0 -5.42101e-14 -6.30597e-16 0 0 0 0)
(0 1.61476e-15 0 0 -1.46357e-14 0 0 0 0)
(0 4.1679e-16 0 -8.13152e-14 -1.91158e-14 0 0 0 0)
(2.71051e-14 -8.96752e-15 0 -2.71051e-14 7.49745e-16 0 0 0 0)
(0 -1.18522e-14 0 0 4.98122e-15 0 0 0 0)
(-2.71051e-14 4.94057e-15 0 0 7.88399e-15 0 0 0 0)
(1.21973e-12 5.56036e-12 0 -2.1684e-13 -1.94434e-13 0 0 0 0)
(-1.21973e-12 -6.60162e-12 0 -2.43945e-13 1.00136e-13 0 0 0 0)
(1.35525e-13 1.33094e-12 0 -1.89735e-13 -6.22143e-15 0 0 0 0)
(-1.0842e-13 -3.24695e-13 0 2.71051e-14 1.06976e-14 0 0 0 0)
(5.42101e-14 5.72977e-14 0 -2.71051e-14 -1.08382e-14 0 0 0 0)
(-2.71051e-14 -1.94196e-14 0 0 6.4592e-15 0 0 0 0)
(0 -2.08774e-15 0 2.71051e-14 1.65748e-14 0 0 0 0)
(0 1.124e-14 0 -2.71051e-14 1.00893e-14 0 0 0 0)
(-2.71051e-14 7.99905e-15 0 0 6.93741e-15 0 0 0 0)
(0 -3.74221e-15 0 0 5.13241e-15 0 0 0 0)
(0 -2.23999e-15 0 0 1.23552e-15 0 0 0 0)
(-8.13152e-14 -1.04774e-15 0 2.71051e-14 1.09468e-14 0 0 0 0)
(0 -1.21778e-15 0 5.42101e-14 9.25427e-16 0 0 0 0)
(5.42101e-14 -6.18369e-15 0 1.0842e-13 -2.75624e-15 0 0 0 0)
(0 -1.34552e-14 0 2.71051e-14 8.32434e-15 0 0 0 0)
(-5.42101e-14 -1.07236e-14 0 0 4.9277e-15 0 0 0 0)
(5.42101e-14 7.27709e-15 0 0 -1.75212e-14 0 0 0 0)
(0 7.9692e-15 0 -8.13152e-14 -2.19516e-14 0 0 0 0)
(0 1.04384e-15 0 0 -5.43614e-15 0 0 0 0)
(0 2.2991e-15 0 -2.71051e-14 2.30901e-15 0 0 0 0)
(-7.58942e-13 -2.76369e-12 0 -9.48677e-13 -1.06658e-11 0 0 0 0)
(5.69206e-13 3.35804e-12 0 2.71051e-13 2.16912e-12 0 0 0 0)
(5.42101e-14 -7.24265e-13 0 -5.42101e-14 -5.45603e-13 0 0 0 0)
(1.89735e-13 1.60468e-13 0 0 9.0984e-14 0 0 0 0)
(-5.42101e-14 -3.10389e-14 0 2.71051e-14 -2.75597e-14 0 0 0 0)
(0 2.29284e-14 0 -2.71051e-14 7.84406e-15 0 0 0 0)
(0 -2.60847e-15 0 2.71051e-14 1.62229e-14 0 0 0 0)
(-5.42101e-14 -6.971e-15 0 2.71051e-14 6.11643e-15 0 0 0 0)
(5.42101e-14 -3.37033e-15 0 0 -1.48586e-14 0 0 0 0)
(0 -5.30151e-15 0 5.42101e-14 -1.00265e-14 0 0 0 0)
(0 5.62079e-17 0 0 -9.99919e-15 0 0 0 0)
(5.42101e-14 -2.27754e-15 0 0 -6.04393e-16 0 0 0 0)
(2.71051e-14 -7.60672e-16 0 2.71051e-14 7.08739e-15 0 0 0 0)
(-2.71051e-14 1.6657e-14 0 -2.71051e-14 5.82877e-15 0 0 0 0)
(0 9.23409e-15 0 -2.71051e-14 7.66387e-15 0 0 0 0)
(-5.42101e-14 -2.42308e-14 0 2.71051e-14 2.54803e-14 0 0 0 0)
(-5.42101e-14 -2.64625e-14 0 5.42101e-14 1.03154e-14 0 0 0 0)
(5.42101e-14 3.11753e-15 0 0 -1.75758e-14 0 0 0 0)
(0 1.24084e-14 0 0 -3.84497e-15 0 0 0 0)
(0 8.0677e-15 0 0 1.57075e-15 0 0 0 0)
(5.14996e-13 -2.93628e-12 0 -4.33681e-13 1.0307e-11 0 0 0 0)
(-3.25261e-13 3.51854e-12 0 1.89735e-13 -2.22286e-12 0 0 0 0)
(-2.71051e-14 -7.47196e-13 0 5.42101e-14 5.06019e-13 0 0 0 0)
(-1.0842e-13 1.93349e-13 0 -5.42101e-14 -1.06388e-13 0 0 0 0)
(0 -2.58422e-14 0 -5.42101e-14 3.796e-14 0 0 0 0)
(2.71051e-14 2.4363e-14 0 -2.71051e-14 3.18225e-15 0 0 0 0)
(2.71051e-14 -3.81536e-15 0 -5.42101e-14 -2.92648e-15 0 0 0 0)
(-2.71051e-14 -1.98415e-14 0 0 7.75881e-16 0 0 0 0)
(0 -8.14391e-15 0 0 1.40564e-16 0 0 0 0)
(-2.71051e-14 1.1172e-15 0 0 5.56446e-15 0 0 0 0)
(-2.71051e-14 7.18214e-15 0 0 1.53082e-14 0 0 0 0)
(-2.71051e-14 1.60388e-14 0 -5.42101e-14 1.01636e-14 0 0 0 0)
(0 5.21538e-15 0 -8.13152e-14 1.49019e-14 0 0 0 0)
(-5.42101e-14 -5.60721e-15 0 -2.71051e-14 -3.00618e-15 0 0 0 0)
(5.42101e-14 6.1963e-15 0 0 -3.26954e-14 0 0 0 0)
(2.71051e-14 -8.0721e-15 0 -2.71051e-14 -1.66635e-14 0 0 0 0)
(0 -3.5779e-14 0 5.42101e-14 1.87964e-14 0 0 0 0)
(-2.71051e-14 -6.19119e-15 0 8.13152e-14 1.79953e-14 0 0 0 0)
(0 2.01904e-14 0 0 -4.22225e-15 0 0 0 0)
(0 4.57332e-15 0 0 -6.65293e-15 0 0 0 0)
(-9.21572e-13 5.32047e-12 0 8.13152e-14 -1.62708e-12 0 0 0 0)
(9.48677e-13 -6.44296e-12 0 -2.1684e-13 3.22229e-13 0 0 0 0)
(-2.1684e-13 1.39221e-12 0 -1.35525e-13 -3.42819e-14 0 0 0 0)
(1.0842e-13 -3.0759e-13 0 -8.13152e-14 2.57254e-14 0 0 0 0)
(0 7.85312e-14 0 -8.13152e-14 2.25229e-14 0 0 0 0)
(0 -1.79581e-14 0 -8.13152e-14 6.96684e-15 0 0 0 0)
(-5.42101e-14 -5.01483e-15 0 -1.35525e-13 -1.7641e-14 0 0 0 0)
(5.42101e-14 -3.90395e-15 0 -1.0842e-13 -1.25106e-14 0 0 0 0)
(2.71051e-14 1.41824e-15 0 -5.42101e-14 -3.38833e-15 0 0 0 0)
(5.42101e-14 9.86617e-15 0 -5.42101e-14 -1.18513e-14 0 0 0 0)
(-5.42101e-14 4.65534e-15 0 0 -4.2652e-15 0 0 0 0)
(0 -2.68384e-15 0 0 -1.23518e-14 0 0 0 0)
(5.42101e-14 -1.39304e-14 0 5.42101e-14 -1.668e-14 0 0 0 0)
(2.71051e-14 -3.09404e-14 0 5.42101e-14 -8.17101e-15 0 0 0 0)
(-2.71051e-14 -4.42324e-15 0 2.71051e-14 -2.43109e-15 0 0 0 0)
(2.71051e-14 2.72611e-14 0 0 -2.60933e-14 0 0 0 0)
(0 8.19628e-15 0 -2.71051e-14 -7.64669e-15 0 0 0 0)
(-2.71051e-14 -1.99011e-14 0 2.71051e-14 1.40666e-14 0 0 0 0)
(-5.42101e-14 -1.22398e-14 0 0 -4.85217e-15 0 0 0 0)
(5.42101e-14 1.89429e-14 0 0 -1.13483e-14 0 0 0 0)
(3.52366e-13 -4.24113e-12 0 2.03288e-12 -3.45026e-12 0 0 0 0)
(-4.87891e-13 5.11134e-12 0 -4.33681e-13 8.20007e-13 0 0 0 0)
(8.13152e-14 -1.0437e-12 0 1.89735e-13 -1.74691e-13 0 0 0 0)
(-2.71051e-14 2.50153e-13 0 -5.42101e-14 3.40566e-14 0 0 0 0)
(-5.42101e-14 -4.46008e-14 0 0 -1.38319e-14 0 0 0 0)
(5.42101e-14 -1.58008e-14 0 2.71051e-14 -8.11235e-15 0 0 0 0)
(0 -2.32928e-14 0 1.35525e-13 -8.78486e-15 0 0 0 0)
(2.71051e-14 -5.58881e-15 0 2.71051e-14 -1.64643e-14 0 0 0 0)
(0 -7.48458e-15 0 8.13152e-14 -2.67905e-14 0 0 0 0)
(5.42101e-14 2.40338e-16 0 2.71051e-14 -2.66057e-14 0 0 0 0)
(0 6.68162e-15 0 2.71051e-14 -2.20816e-14 0 0 0 0)
(2.71051e-14 3.62402e-15 0 2.71051e-14 -1.37026e-14 0 0 0 0)
(2.71051e-14 9.3962e-15 0 5.42101e-14 -9.29702e-15 0 0 0 0)
(0 8.64171e-15 0 -2.71051e-14 1.39292e-14 0 0 0 0)
(-5.42101e-14 -1.1726e-14 0 2.71051e-14 3.59998e-14 0 0 0 0)
(0 -1.32877e-14 0 0 3.05274e-15 0 0 0 0)
(2.71051e-14 4.38098e-15 0 2.71051e-14 -1.9192e-14 0 0 0 0)
(2.71051e-14 -3.39666e-15 0 -2.71051e-14 -5.49501e-15 0 0 0 0)
(0 -5.22458e-15 0 2.71051e-14 1.3657e-14 0 0 0 0)
(-5.42101e-14 2.07738e-14 0 2.71051e-14 9.65718e-15 0 0 0 0)
(6.77626e-13 2.69022e-12 0 -2.08709e-12 4.05658e-12 0 0 0 0)
(-8.94467e-13 -3.16739e-12 0 4.06576e-13 -7.9809e-13 0 0 0 0)
(1.6263e-13 6.06259e-13 0 -1.89735e-13 1.63881e-13 0 0 0 0)
(-2.71051e-14 -1.46731e-13 0 5.42101e-14 -5.43534e-14 0 0 0 0)
(8.13152e-14 3.63623e-14 0 2.71051e-14 -4.37548e-14 0 0 0 0)
(5.42101e-14 -1.2911e-14 0 5.42101e-14 -3.55731e-14 0 0 0 0)
(0 -1.33668e-14 0 0 -1.16484e-14 0 0 0 0)
(0 -2.19096e-14 0 5.42101e-14 -4.81579e-15 0 0 0 0)
(2.71051e-14 -8.7231e-15 0 -2.71051e-14 -4.77711e-15 0 0 0 0)
(-2.71051e-14 1.45751e-14 0 -8.13152e-14 1.6296e-14 0 0 0 0)
(0 1.75584e-14 0 -8.13152e-14 1.61466e-14 0 0 0 0)
(0 1.01007e-14 0 -8.13152e-14 7.06723e-15 0 0 0 0)
(0 1.37014e-14 0 -1.0842e-13 -3.81393e-15 0 0 0 0)
(0 1.43565e-14 0 -8.13152e-14 -7.73215e-15 0 0 0 0)
(0 -1.52997e-14 0 -5.42101e-14 -7.23252e-15 0 0 0 0)
(0 -2.79308e-14 0 0 1.14216e-14 0 0 0 0)
(0 -3.51468e-16 0 -5.42101e-14 1.13681e-14 0 0 0 0)
(-2.71051e-14 1.29479e-14 0 -2.71051e-14 1.07289e-14 0 0 0 0)
(-2.71051e-14 2.91234e-15 0 -2.71051e-14 1.31882e-14 0 0 0 0)
(0 -4.37132e-15 0 -2.71051e-14 8.23865e-15 0 0 0 0)
(-1.32815e-12 -9.82642e-13 0 -7.86047e-13 -6.00634e-12 0 0 0 0)
(1.38236e-12 1.21864e-12 0 3.25261e-13 1.14418e-12 0 0 0 0)
(-2.43945e-13 -2.99963e-13 0 5.42101e-14 -2.7939e-13 0 0 0 0)
(1.0842e-13 4.2518e-14 0 1.0842e-13 6.32168e-14 0 0 0 0)
(0 -2.58205e-14 0 5.42101e-14 -2.70052e-14 0 0 0 0)
(0 1.63056e-14 0 0 -1.7222e-14 0 0 0 0)
(0 7.46451e-15 0 -5.42101e-14 -1.03014e-14 0 0 0 0)
(2.71051e-14 1.28249e-15 0 -5.42101e-14 9.20312e-15 0 0 0 0)
(-2.71051e-14 1.36272e-14 0 -8.13152e-14 2.79711e-14 0 0 0 0)
(-5.42101e-14 2.1164e-14 0 -2.71051e-14 1.91075e-14 0 0 0 0)
(0 -2.54712e-15 0 -2.71051e-14 -7.86457e-15 0 0 0 0)
(0 -1.63365e-14 0 -2.71051e-14 -8.99759e-15 0 0 0 0)
(0 -5.40318e-15 0 0 -1.79847e-14 0 0 0 0)
(5.42101e-14 5.22312e-15 0 0 -2.42716e-14 0 0 0 0)
(2.71051e-14 7.42773e-15 0 0 -2.44202e-14 0 0 0 0)
(0 5.3129e-15 0 0 -8.53849e-17 0 0 0 0)
(0 3.6883e-15 0 0 5.7208e-15 0 0 0 0)
(0 -1.57656e-15 0 0 -2.36835e-15 0 0 0 0)
(5.42101e-14 -7.71481e-15 0 0 -1.42149e-14 0 0 0 0)
(0 -6.53059e-16 0 2.71051e-14 -4.73837e-15 0 0 0 0)
(1.89735e-13 -2.17195e-12 0 2.22261e-12 9.10272e-12 0 0 0 0)
(0 2.55956e-12 0 -3.25261e-13 -1.99306e-12 0 0 0 0)
(-5.42101e-14 -4.74705e-13 0 2.43945e-13 4.44201e-13 0 0 0 0)
(-2.71051e-14 1.05654e-13 0 2.71051e-14 -8.51661e-14 0 0 0 0)
(-2.71051e-14 -4.40765e-14 0 8.13152e-14 6.46506e-14 0 0 0 0)
(-5.42101e-14 3.79278e-15 0 2.71051e-14 3.64891e-14 0 0 0 0)
(-2.71051e-14 1.30583e-14 0 8.13152e-14 4.29918e-14 0 0 0 0)
(-5.42101e-14 1.6363e-14 0 0 3.0622e-14 0 0 0 0)
(-2.71051e-14 1.1813e-15 0 0 2.04899e-14 0 0 0 0)
(0 -2.12606e-14 0 0 -1.09766e-14 0 0 0 0)
(8.13152e-14 -1.05467e-14 0 0 -3.19056e-14 0 0 0 0)
(0 -1.94618e-17 0 8.13152e-14 -1.20168e-14 0 0 0 0)
(2.71051e-14 -1.57262e-15 0 8.13152e-14 -1.33143e-15 0 0 0 0)
(0 7.92102e-15 0 5.42101e-14 -1.44751e-16 0 0 0 0)
(0 8.8865e-15 0 2.71051e-14 3.11569e-16 0 0 0 0)
(0 2.21019e-15 0 2.71051e-14 8.80681e-16 0 0 0 0)
(0 -2.63444e-15 0 0 4.01226e-16 0 0 0 0)
(0 -6.98782e-15 0 0 -6.58163e-15 0 0 0 0)
(0 5.42327e-16 0 2.71051e-14 -7.80786e-15 0 0 0 0)
(-2.71051e-14 1.4582e-14 0 0 -2.49983e-15 0 0 0 0)
(5.42101e-13 6.12702e-12 0 -3.25261e-13 -5.11165e-12 0 0 0 0)
(-5.96311e-13 -7.43988e-12 0 -1.89735e-13 1.18662e-12 0 0 0 0)
(1.35525e-13 1.60793e-12 0 -2.43945e-13 -2.71181e-13 0 0 0 0)
(-2.71051e-14 -3.37032e-13 0 -1.35525e-13 5.58501e-14 0 0 0 0)
(-2.71051e-14 9.58347e-14 0 -1.6263e-13 -2.58303e-15 0 0 0 0)
(0 -5.35318e-15 0 -8.13152e-14 2.36869e-14 0 0 0 0)
(-2.71051e-14 1.59739e-15 0 -1.0842e-13 1.83304e-14 0 0 0 0)
(-5.42101e-14 -2.12194e-14 0 0 1.06612e-14 0 0 0 0)
(-2.71051e-14 -2.79715e-14 0 2.71051e-14 8.82626e-15 0 0 0 0)
(2.71051e-14 -3.12315e-14 0 2.71051e-14 5.38157e-15 0 0 0 0)
(-2.71051e-14 -3.58723e-15 0 -5.42101e-14 8.31173e-15 0 0 0 0)
(8.13152e-14 1.42377e-14 0 -8.13152e-14 -1.15964e-14 0 0 0 0)
(-5.42101e-14 6.46883e-15 0 -8.13152e-14 -2.84518e-15 0 0 0 0)
(5.42101e-14 6.86612e-15 0 -5.42101e-14 -8.06225e-15 0 0 0 0)
(0 8.45316e-15 0 -2.71051e-14 -1.26688e-14 0 0 0 0)
(0 5.40256e-15 0 -2.71051e-14 -7.3872e-15 0 0 0 0)
(0 -3.77402e-15 0 -5.42101e-14 -2.60219e-17 0 0 0 0)
(0 -9.78565e-15 0 0 -1.99747e-15 0 0 0 0)
(0 -3.633e-15 0 0 8.71001e-15 0 0 0 0)
(0 9.65463e-15 0 -2.71051e-14 9.16941e-16 0 0 0 0)
(-2.98156e-13 -6.09698e-12 0 -1.46367e-12 -6.84608e-12 0 0 0 0)
(8.13152e-14 7.40003e-12 0 4.33681e-13 1.43843e-12 0 0 0 0)
(-5.42101e-14 -1.60547e-12 0 0 -2.85526e-13 0 0 0 0)
(5.42101e-14 3.74252e-13 0 0 6.7789e-14 0 0 0 0)
(2.71051e-14 -7.62397e-14 0 2.71051e-14 -2.59187e-14 0 0 0 0)
(0 2.47062e-14 0 0 -1.2429e-14 0 0 0 0)
(1.0842e-13 3.26745e-17 0 0 -2.92041e-14 0 0 0 0)
(8.13152e-14 6.85886e-15 0 0 -1.97207e-14 0 0 0 0)
(-5.42101e-14 -4.09837e-15 0 0 -3.03926e-15 0 0 0 0)
(-2.71051e-14 -2.17751e-14 0 5.42101e-14 9.29642e-15 0 0 0 0)
(-5.42101e-14 -2.75247e-14 0 5.42101e-14 1.24271e-14 0 0 0 0)
(5.42101e-14 -1.11764e-14 0 8.13152e-14 -9.88073e-15 0 0 0 0)
(2.71051e-14 1.96151e-15 0 5.42101e-14 -1.49716e-14 0 0 0 0)
(0 -1.90262e-15 0 5.42101e-14 -1.78944e-14 0 0 0 0)
(5.42101e-14 9.56155e-15 0 0 -1.97003e-14 0 0 0 0)
(-5.42101e-14 1.4853e-14 0 2.71051e-14 -1.6458e-14 0 0 0 0)
(5.42101e-14 2.75528e-15 0 5.42101e-14 -1.08122e-14 0 0 0 0)
(2.71051e-14 1.74821e-15 0 0 -6.45259e-15 0 0 0 0)
(-2.71051e-14 3.45674e-15 0 -2.71051e-14 1.58807e-15 0 0 0 0)
(0 4.95504e-15 0 2.71051e-14 9.29368e-16 0 0 0 0)
(-4.87891e-13 7.19367e-13 0 6.23416e-13 1.46232e-11 0 0 0 0)
(8.94467e-13 -8.7932e-13 0 -1.0842e-13 -3.0915e-12 0 0 0 0)
(-2.98156e-13 2.37288e-13 0 1.6263e-13 7.28373e-13 0 0 0 0)
(-5.42101e-14 -7.74248e-14 0 1.35525e-13 -1.47063e-13 0 0 0 0)
(0 1.56166e-14 0 1.35525e-13 3.57309e-14 0 0 0 0)
(0 -8.63862e-15 0 1.0842e-13 -7.82087e-15 0 0 0 0)
(-5.42101e-14 -5.69432e-15 0 1.35525e-13 7.76269e-15 0 0 0 0)
(-5.42101e-14 4.9455e-15 0 1.0842e-13 -1.75187e-15 0 0 0 0)
(5.42101e-14 1.04561e-15 0 8.13152e-14 -1.52897e-14 0 0 0 0)
(2.71051e-14 -1.57651e-14 0 5.42101e-14 -9.90855e-15 0 0 0 0)
(2.71051e-14 -2.27644e-14 0 1.35525e-13 -1.78581e-15 0 0 0 0)
(0 -1.3161e-14 0 5.42101e-14 2.4025e-15 0 0 0 0)
(-2.71051e-14 -1.54484e-15 0 5.42101e-14 -7.60389e-16 0 0 0 0)
(0 2.13741e-15 0 5.42101e-14 8.08702e-15 0 0 0 0)
(2.71051e-14 9.88952e-15 0 2.71051e-14 1.00138e-14 0 0 0 0)
(0 1.42907e-14 0 0 -2.63906e-15 0 0 0 0)
(-2.71051e-14 6.23144e-15 0 5.42101e-14 9.54623e-15 0 0 0 0)
(-2.71051e-14 2.61458e-15 0 0 1.64604e-14 0 0 0 0)
(2.71051e-14 3.74896e-15 0 0 -1.14611e-15 0 0 0 0)
(-2.71051e-14 7.13719e-15 0 0 -4.4532e-16 0 0 0 0)
(2.1684e-13 5.43475e-12 0 1.84314e-12 -5.91728e-12 0 0 0 0)
(-4.06576e-13 -6.49483e-12 0 -5.69206e-13 1.28145e-12 0 0 0 0)
(2.43945e-13 1.33896e-12 0 -8.13152e-14 -3.49969e-13 0 0 0 0)
(2.71051e-14 -3.1839e-13 0 -2.71051e-14 5.50045e-14 0 0 0 0)
(0 6.30027e-14 0 -5.42101e-14 -2.3454e-14 0 0 0 0)
(-2.71051e-14 -3.262e-15 0 -5.42101e-14 -7.2452e-15 0 0 0 0)
(5.42101e-14 6.10168e-15 0 -5.42101e-14 2.71467e-15 0 0 0 0)
(2.71051e-14 -1.61936e-14 0 -2.71051e-14 -2.44849e-15 0 0 0 0)
(-2.71051e-14 -1.2255e-14 0 0 -9.03951e-15 0 0 0 0)
(0 -8.27121e-15 0 0 -5.73808e-15 0 0 0 0)
(-5.42101e-14 -1.52136e-14 0 0 8.42425e-15 0 0 0 0)
(0 -1.01509e-14 0 -5.42101e-14 1.5058e-14 0 0 0 0)
(0 7.64603e-15 0 -5.42101e-14 8.40825e-15 0 0 0 0)
(0 8.87161e-15 0 -5.42101e-14 5.51048e-15 0 0 0 0)
(-5.42101e-14 -1.16453e-15 0 -2.71051e-14 6.02867e-15 0 0 0 0)
(2.71051e-14 1.43854e-14 0 -2.71051e-14 -1.15785e-15 0 0 0 0)
(0 2.18547e-14 0 -5.42101e-14 -8.79539e-16 0 0 0 0)
(-2.71051e-14 -8.94413e-15 0 2.71051e-14 3.35147e-15 0 0 0 0)
(0 -1.3449e-14 0 0 -2.49301e-15 0 0 0 0)
(0 6.54647e-15 0 -2.71051e-14 -3.47657e-15 0 0 0 0)
(7.58942e-13 -3.91646e-12 0 -7.31836e-13 -1.02891e-11 0 0 0 0)
(-1.0571e-12 4.68799e-12 0 3.52366e-13 2.0588e-12 0 0 0 0)
(2.1684e-13 -9.89159e-13 0 1.0842e-13 -5.00179e-13 0 0 0 0)
(2.71051e-14 2.4909e-13 0 2.71051e-14 8.9375e-14 0 0 0 0)
(-2.71051e-14 -4.6633e-14 0 2.71051e-14 -1.77914e-14 0 0 0 0)
(0 1.75301e-14 0 5.42101e-14 7.58962e-15 0 0 0 0)
(0 -8.97612e-16 0 8.13152e-14 -1.41565e-14 0 0 0 0)
(0 -6.80868e-15 0 5.42101e-14 -1.70256e-14 0 0 0 0)
(2.71051e-14 -2.24398e-15 0 5.42101e-14 -1.2585e-14 0 0 0 0)
(0 1.69867e-15 0 0 -5.3721e-15 0 0 0 0)
(5.42101e-14 -1.96829e-15 0 2.71051e-14 5.25867e-15 0 0 0 0)
(-5.42101e-14 -1.31771e-14 0 5.42101e-14 2.09973e-14 0 0 0 0)
(-2.71051e-14 -1.10924e-14 0 2.71051e-14 6.55575e-15 0 0 0 0)
(2.71051e-14 -2.42179e-16 0 2.71051e-14 -8.2978e-15 0 0 0 0)
(0 3.2212e-15 0 5.42101e-14 -3.71189e-15 0 0 0 0)
(0 7.38253e-15 0 2.71051e-14 7.90469e-15 0 0 0 0)
(5.42101e-14 1.07407e-14 0 0 -1.60586e-14 0 0 0 0)
(0 1.00111e-15 0 -2.71051e-14 -2.25346e-14 0 0 0 0)
(0 -3.07909e-15 0 0 -3.06151e-15 0 0 0 0)
(0 1.31068e-14 0 2.71051e-14 -1.57005e-15 0 0 0 0)
(-1.35525e-13 -2.7956e-12 0 -7.04731e-13 8.40677e-12 0 0 0 0)
(4.60786e-13 3.29414e-12 0 8.13152e-14 -1.69471e-12 0 0 0 0)
(-1.0842e-13 -6.30466e-13 0 -1.0842e-13 4.24628e-13 0 0 0 0)
(-2.71051e-14 1.63997e-13 0 -5.42101e-14 -7.5081e-14 0 0 0 0)
(0 -1.87826e-14 0 -5.42101e-14 1.15409e-14 0 0 0 0)
(2.71051e-14 3.72932e-16 0 -5.42101e-14 -9.66531e-15 0 0 0 0)
(5.42101e-14 -1.85136e-14 0 -8.13152e-14 -6.36215e-15 0 0 0 0)
(-2.71051e-14 -1.46221e-14 0 -8.13152e-14 9.74587e-15 0 0 0 0)
(-2.71051e-14 -6.01521e-16 0 -8.13152e-14 1.50687e-14 0 0 0 0)
(-2.71051e-14 9.57251e-15 0 -5.42101e-14 1.25914e-14 0 0 0 0)
(-2.71051e-14 1.11559e-14 0 -8.13152e-14 3.79748e-15 0 0 0 0)
(0 -8.85386e-15 0 -5.42101e-14 3.40381e-15 0 0 0 0)
(-5.42101e-14 -2.16491e-14 0 -2.71051e-14 2.58284e-14 0 0 0 0)
(-2.71051e-14 -1.39603e-15 0 -2.71051e-14 3.61453e-14 0 0 0 0)
(-2.71051e-14 1.5038e-14 0 -5.42101e-14 2.74666e-14 0 0 0 0)
(0 2.03866e-15 0 -2.71051e-14 1.78861e-14 0 0 0 0)
(-2.71051e-14 -8.58455e-15 0 0 1.80454e-14 0 0 0 0)
(-2.71051e-14 4.05296e-15 0 0 1.57299e-14 0 0 0 0)
(2.71051e-14 7.51557e-15 0 0 1.29913e-14 0 0 0 0)
(-2.71051e-14 1.1178e-14 0 -2.71051e-14 1.12935e-14 0 0 0 0)
)
;

boundaryField
{
    movingWall
    {
        type            extrapolatedCalculated;
        value           nonuniform List<tensor> 
20
(
(-1.35525e-13 -2.7956e-12 0 1.24345e-12 1.38225e-11 0 0 0 0)
(4.60786e-13 3.29414e-12 0 -7.54952e-13 -2.64013e-12 0 0 0 0)
(-1.0842e-13 -6.30466e-13 0 -5.77316e-13 6.45937e-13 0 0 0 0)
(-2.71051e-14 1.63997e-13 0 -3.10862e-13 -1.18265e-13 0 0 0 0)
(0 -1.87826e-14 0 -3.55271e-13 -1.00505e-14 0 0 0 0)
(2.71051e-14 3.72932e-16 0 -4.44089e-13 -4.31347e-14 0 0 0 0)
(5.42101e-14 -1.85136e-14 0 -4.88498e-13 -1.15423e-14 0 0 0 0)
(-2.71051e-14 -1.46221e-14 0 -5.32907e-13 3.09196e-14 0 0 0 0)
(-2.71051e-14 -6.01521e-16 0 -4.88498e-13 4.69462e-14 0 0 0 0)
(-2.71051e-14 9.57251e-15 0 -3.55271e-13 3.33257e-14 0 0 0 0)
(-2.71051e-14 1.11559e-14 0 -3.10862e-13 8.6562e-15 0 0 0 0)
(0 -8.85386e-15 0 -3.10862e-13 -1.12977e-14 0 0 0 0)
(-5.42101e-14 -2.16491e-14 0 -2.66454e-13 4.40717e-14 0 0 0 0)
(-2.71051e-14 -1.39603e-15 0 -2.22045e-13 7.52988e-14 0 0 0 0)
(-2.71051e-14 1.5038e-14 0 -1.33227e-13 4.96558e-14 0 0 0 0)
(0 2.03866e-15 0 -1.33227e-13 1.51469e-14 0 0 0 0)
(-2.71051e-14 -8.58455e-15 0 -8.88178e-14 4.15011e-14 0 0 0 0)
(-2.71051e-14 4.05296e-15 0 0 4.94851e-14 0 0 0 0)
(2.71051e-14 7.51557e-15 0 0 2.52893e-14 0 0 0 0)
(-2.71051e-14 1.1178e-14 0 -4.44089e-14 1.94228e-14 0 0 0 0)
)
;
    }
    fixedWalls
    {
        type            extrapolatedCalculated;
        value           nonuniform List<tensor> 
60
(
(3.9968e-13 4.25699e-11 0 8.13152e-13 1.11201e-11 0 0 0 0)
(2.93099e-12 1.9107e-12 0 -7.58942e-13 -1.81753e-11 0 0 0 0)
(-2.66454e-12 -3.01313e-11 0 -1.57209e-12 5.06303e-12 0 0 0 0)
(-3.37508e-12 2.21628e-11 0 1.84314e-12 5.94287e-12 0 0 0 0)
(4.70735e-12 -6.35985e-12 0 3.52366e-13 -8.87474e-12 0 0 0 0)
(-1.95399e-12 -1.33362e-11 0 2.1684e-13 8.53573e-12 0 0 0 0)
(5.4623e-12 2.77831e-11 0 -2.1684e-13 -1.94434e-13 0 0 0 0)
(-2.75335e-12 -1.41139e-11 0 -9.48677e-13 -1.06658e-11 0 0 0 0)
(1.64313e-12 -1.488e-11 0 -4.33681e-13 1.0307e-11 0 0 0 0)
(-4.44089e-12 2.71142e-11 0 8.13152e-14 -1.62708e-12 0 0 0 0)
(1.90958e-12 -2.13883e-11 0 2.03288e-12 -3.45026e-12 0 0 0 0)
(3.77476e-12 1.33131e-11 0 -2.08709e-12 4.05658e-12 0 0 0 0)
(-6.39488e-12 -5.16197e-12 0 -7.86047e-13 -6.00634e-12 0 0 0 0)
(4.44089e-13 -1.07122e-11 0 2.22261e-12 9.10272e-12 0 0 0 0)
(2.53131e-12 3.12489e-11 0 -3.25261e-13 -5.11165e-12 0 0 0 0)
(-8.88178e-13 -3.11588e-11 0 -1.46367e-12 -6.84608e-12 0 0 0 0)
(-3.28626e-12 3.86458e-12 0 6.23416e-13 1.46232e-11 0 0 0 0)
(1.68754e-12 2.73341e-11 0 1.84314e-12 -5.91728e-12 0 0 0 0)
(4.08562e-12 -1.98046e-11 0 -7.31836e-13 -1.02891e-11 0 0 0 0)
(-1.24345e-12 -1.38225e-11 0 -7.04731e-13 8.40677e-12 0 0 0 0)
(0 -1.53828e-15 0 0 -2.19819e-15 0 0 0 0)
(-4.44089e-14 1.0331e-14 0 0 -6.28532e-15 0 0 0 0)
(0 2.3603e-14 0 0 -1.7079e-15 0 0 0 0)
(-4.44089e-14 1.71626e-14 0 2.71051e-14 -1.83506e-15 0 0 0 0)
(-4.44089e-14 3.09433e-14 0 0 -4.15219e-17 0 0 0 0)
(-4.44089e-14 1.73287e-14 0 0 7.88399e-15 0 0 0 0)
(0 -5.92691e-16 0 -2.71051e-14 2.30901e-15 0 0 0 0)
(0 8.09268e-15 0 0 1.57075e-15 0 0 0 0)
(0 -6.87571e-15 0 0 -6.65293e-15 0 0 0 0)
(8.88178e-14 3.47044e-14 0 0 -1.13483e-14 0 0 0 0)
(-8.88178e-14 3.85175e-14 0 2.71051e-14 9.65718e-15 0 0 0 0)
(0 -3.92435e-15 0 -2.71051e-14 8.23865e-15 0 0 0 0)
(0 5.56287e-15 0 2.71051e-14 -4.73837e-15 0 0 0 0)
(-4.44089e-14 1.50291e-14 0 0 -2.49983e-15 0 0 0 0)
(0 1.55622e-14 0 -2.71051e-14 9.16941e-16 0 0 0 0)
(0 1.13614e-14 0 2.71051e-14 9.29368e-16 0 0 0 0)
(-4.44089e-14 1.18447e-14 0 0 -4.4532e-16 0 0 0 0)
(0 1.31427e-14 0 -2.71051e-14 -3.47657e-15 0 0 0 0)
(0 2.5751e-14 0 2.71051e-14 -1.57005e-15 0 0 0 0)
(-4.44089e-14 1.94228e-14 0 -2.71051e-14 1.12935e-14 0 0 0 0)
(2.98156e-13 8.45148e-12 0 3.9968e-13 4.25699e-11 0 0 0 0)
(5.42101e-14 -1.00916e-11 0 7.54952e-13 -8.76398e-12 0 0 0 0)
(-1.6263e-13 2.09998e-12 0 6.21725e-13 2.20334e-12 0 0 0 0)
(-8.13152e-14 -5.12847e-13 0 2.22045e-13 -3.64046e-13 0 0 0 0)
(-2.71051e-14 1.02125e-13 0 2.22045e-13 1.51956e-13 0 0 0 0)
(-2.71051e-14 -2.26893e-14 0 1.77636e-13 4.44532e-14 0 0 0 0)
(0 -4.51984e-15 0 8.88178e-14 6.11984e-14 0 0 0 0)
(0 -6.66135e-15 0 8.88178e-14 2.63739e-14 0 0 0 0)
(-2.71051e-14 4.16954e-16 0 8.88178e-14 3.4553e-14 0 0 0 0)
(-2.71051e-14 -3.04604e-15 0 0 2.80417e-14 0 0 0 0)
(0 -2.40992e-15 0 0 2.23689e-14 0 0 0 0)
(0 -1.01527e-14 0 0 1.8402e-14 0 0 0 0)
(-5.42101e-14 -1.26595e-14 0 -8.88178e-14 -1.82419e-14 0 0 0 0)
(5.42101e-14 7.73529e-15 0 -8.88178e-14 -3.22362e-14 0 0 0 0)
(0 1.79743e-14 0 0 1.26993e-14 0 0 0 0)
(0 -2.03097e-15 0 0 3.9661e-14 0 0 0 0)
(0 -1.07527e-14 0 0 4.57539e-15 0 0 0 0)
(0 1.45989e-15 0 -8.88178e-14 -3.34988e-15 0 0 0 0)
(0 1.22204e-15 0 4.44089e-14 1.04149e-14 0 0 0 0)
(0 -2.98831e-15 0 0 1.53828e-15 0 0 0 0)
)
;
    }
    frontAndBack
    {
        type            empty;
    }
}


// ************************************************************************* //
