/*--------------------------------*- C++ -*----------------------------------*\
| =========                 |                                                 |
| \\      /  F ield         | OpenFOAM: The Open Source CFD Toolbox           |
|  \\    /   O peration     | Version:  2506                                  |
|   \\  /    A nd           | Website:  www.openfoam.com                      |
|    \\/     M anipulation  |                                                 |
\*---------------------------------------------------------------------------*/
FoamFile
{
    version     2.0;
    format      ascii;
    arch        "LSB;label=32;scalar=64";
    class       volScalarField;
    location    "8.375";
    object      Lambda2Field;
}
// * * * * * * * * * * * * * * * * * * * * * * * * * * * * * * * * * * * * * //

dimensions      [0 0 -2 0 0 0 0];

internalField   nonuniform List<scalar> 
400
(
6.96123e-24
2.19121e-24
1.40289e-25
-7.28859e-27
9.03897e-27
3.7964e-28
0
0
2.55481e-28
3.48073e-28
1.30642e-28
5.50378e-28
7.99348e-28
2.78872e-28
0
0
-2.68083e-28
-1.46255e-29
0
0
0
7.64092e-25
1.26467e-25
6.61216e-27
2.29259e-27
1.18349e-28
5.12433e-30
3.94488e-28
-1.35512e-28
-3.08978e-28
0
0
0
1.34126e-28
1.76454e-28
3.08541e-28
-1.10701e-28
0
2.40828e-28
0
9.61582e-24
4.07918e-24
1.83671e-26
7.34684e-28
2.0686e-27
3.69117e-28
0
6.12554e-28
-1.86783e-27
-1.53722e-27
-2.18172e-27
-1.46493e-27
-2.79835e-28
4.52146e-29
6.3613e-28
0
-3.48253e-28
2.834e-29
0
0
8.44858e-24
2.86059e-24
1.96286e-25
2.93874e-27
4.46723e-27
1.0608e-27
7.34684e-28
2.18523e-27
8.96679e-28
-5.4308e-28
0
1.16851e-28
0
2.01287e-28
1.22026e-28
0
-1.7379e-28
2.23881e-29
9.56819e-29
3.05911e-28
3.6124e-25
1.31674e-24
6.13277e-26
7.16837e-27
-1.27958e-27
0
2.34353e-28
0
0
-1.39164e-27
0
4.55407e-28
2.27466e-28
4.28259e-29
1.86361e-28
0
0
0
0
0
0
6.37547e-25
0
0
0
5.52927e-28
1.69097e-28
0
3.38988e-28
0
1.56076e-28
2.57432e-29
-8.87686e-28
-3.51869e-28
-8.36357e-29
0
0
2.43627e-28
0
6.21572e-29
0
1.62046e-24
-2.3416e-25
0
0
4.17212e-29
0
-2.02868e-28
4.81276e-29
0
0
9.14331e-29
-6.51597e-29
0
-2.9541e-28
2.42823e-29
3.06992e-28
-1.66145e-28
0
-5.69858e-29
3.19784e-24
1.23419e-24
4.22012e-26
8.2781e-27
0
-5.59946e-28
0
0
2.20778e-28
-1.86864e-28
0
3.65291e-31
2.9613e-29
0
-1.91555e-28
0
0
3.08907e-28
0
0
1.53863e-24
7.73387e-25
0
8.36936e-28
1.40091e-27
0
2.15396e-28
6.01992e-31
0
3.09632e-29
2.34342e-28
-1.34783e-28
-2.02021e-28
1.61021e-28
1.06899e-27
4.96467e-28
-1.58628e-27
0
0
0
1.28193e-24
1.50093e-24
-1.4166e-25
2.56736e-26
-5.8785e-27
1.46027e-27
9.90842e-28
5.79783e-28
0
0
1.81919e-29
0
0
-9.42597e-28
0
6.8086e-28
-1.63689e-28
0
2.35436e-29
1.28784e-28
0
-1.54428e-24
-1.6751e-25
-1.2401e-26
1.91323e-28
0
-3.07959e-27
1.19589e-28
0
7.14376e-28
1.81106e-28
2.85991e-28
5.95804e-28
-4.02114e-29
9.78154e-28
0
4.87081e-28
1.22262e-28
0
6.56336e-28
0
-4.87715e-25
-8.81718e-26
-5.00002e-27
2.90009e-27
5.65539e-28
0
-1.16453e-27
2.59261e-28
-4.5049e-28
-1.16705e-27
-7.71394e-28
-1.47096e-27
-1.10761e-27
8.29398e-28
0
1.90531e-29
0
9.49891e-29
1.18485e-28
2.53638e-24
1.70553e-24
4.32484e-26
8.60617e-27
-6.70451e-28
0
-2.98533e-28
1.51735e-29
-3.25713e-28
0
6.90397e-29
4.42802e-28
0
5.8911e-28
5.96344e-28
0
0
0
2.02065e-28
0
0
0
0
3.59844e-27
0
1.43426e-27
1.79652e-27
9.37708e-28
4.19836e-28
0
1.01797e-27
0
0
4.29399e-28
2.40869e-28
5.99073e-29
0
0
1.46998e-29
6.24913e-30
0
1.76719e-24
-3.18708e-25
4.6411e-26
-1.48509e-26
4.35295e-28
1.62813e-28
1.13662e-28
-2.34849e-29
-1.11847e-28
2.63549e-28
0
0
0
-6.86245e-29
-9.1866e-29
2.0459e-28
0
0
-2.60849e-28
9.01288e-24
3.21586e-24
2.93874e-27
2.93874e-27
-1.3318e-27
0
8.52882e-28
3.88905e-28
9.23707e-30
-4.45748e-28
0
0
3.30483e-28
0
3.88103e-28
6.73458e-28
2.66267e-28
4.16359e-29
0
1.34307e-28
6.86503e-25
8.95407e-25
1.27487e-25
0
2.11645e-27
-8.75435e-28
0
5.39262e-28
3.188e-28
-1.19944e-28
-2.35047e-27
-7.0769e-28
0
1.15869e-28
3.68333e-28
0
4.28937e-28
2.70945e-28
1.31356e-30
1.9831e-31
1.0064e-23
3.8622e-24
0
9.36467e-27
-2.86529e-27
2.29326e-28
0
4.44922e-28
8.17128e-29
0
7.09681e-29
5.50284e-28
-3.43793e-28
-4.50566e-28
6.79095e-29
0
-1.18397e-27
0
0
-1.65356e-28
3.4422e-24
2.76934e-24
0
7.48628e-27
-5.29307e-28
9.50309e-28
0
-7.92274e-29
3.67372e-29
0
0
0
0
6.22891e-29
1.74621e-28
2.00104e-28
2.57879e-28
0
0
3.5526e-28
1.98851e-24
4.80187e-25
8.01102e-26
-3.25313e-27
1.01821e-27
7.32016e-29
1.54591e-27
1.28398e-27
2.75977e-28
0
-1.72456e-28
4.79969e-28
1.25391e-27
7.72523e-28
-6.07948e-29
0
3.25637e-28
2.47431e-28
1.68775e-28
0
)
;

boundaryField
{
    movingWall
    {
        type            calculated;
        value           nonuniform List<scalar> 
20
(
0
0
3.75733e-25
-3.69938e-26
6.67292e-27
5.69069e-28
9.17707e-27
8.52692e-27
1.02853e-27
-2.29024e-27
-2.73325e-27
2.75233e-27
7.71079e-27
1.04467e-27
0
-4.21742e-29
1.49715e-27
7.34684e-28
6.39548e-28
0
)
;
    }
    fixedWalls
    {
        type            calculated;
        value           nonuniform List<scalar> 
60
(
3.47755e-23
7.14059e-24
5.4469e-23
5.22404e-23
1.99181e-23
9.26267e-25
0
2.09705e-23
9.15303e-24
4.85218e-24
-3.15755e-23
-1.13299e-23
4.01337e-23
0
0
4.63952e-23
1.32087e-23
5.32284e-23
3.1186e-23
1.12873e-23
0
3.95052e-29
0
4.68562e-28
1.72407e-33
6.21572e-29
1.60649e-29
0
0
1.28784e-28
1.13728e-27
1.0637e-28
1.50782e-28
6.24913e-30
-4.20973e-28
3.07951e-28
1.9831e-31
-3.44146e-28
6.97982e-28
0
3.46679e-24
0
1.33206e-24
0
2.34109e-26
-2.05434e-27
0
0
7.71717e-28
7.34684e-28
0
0
1.45716e-27
3.5214e-28
0
0
0
-1.18442e-28
5.42695e-29
0
)
;
    }
    frontAndBack
    {
        type            empty;
    }
}


// ************************************************************************* //
