/*--------------------------------*- C++ -*----------------------------------*\
| =========                 |                                                 |
| \\      /  F ield         | OpenFOAM: The Open Source CFD Toolbox           |
|  \\    /   O peration     | Version:  2506                                  |
|   \\  /    A nd           | Website:  www.openfoam.com                      |
|    \\/     M anipulation  |                                                 |
\*---------------------------------------------------------------------------*/
FoamFile
{
    version     2.0;
    format      ascii;
    arch        "LSB;label=32;scalar=64";
    class       volVectorField;
    location    "8.375";
    object      LambVectorField;
}
// * * * * * * * * * * * * * * * * * * * * * * * * * * * * * * * * * * * * * //

dimensions      [0 1 -2 0 0 0 0];

internalField   nonuniform List<vector> 
400
(
(-8.12907e-25 -7.63833e-12 0)
(-2.16356e-25 9.8748e-12 -0)
(-1.12689e-26 -2.04577e-12 0)
(-4.91418e-28 5.39952e-13 -0)
(-7.90533e-30 -2.08096e-14 0)
(2.52153e-30 2.26893e-14 0)
(4.83848e-30 3.16249e-14 0)
(4.39214e-31 6.66135e-15 0)
(-3.60176e-32 -4.16954e-16 0)
(2.1354e-31 3.04604e-15 0)
(-2.89678e-30 -5.18002e-14 0)
(-2.02686e-30 -4.40574e-14 0)
(1.8949e-30 -4.15506e-14 -0)
(6.23391e-31 -7.73529e-15 -0)
(-5.70652e-31 -1.79743e-14 0)
(2.01376e-31 2.03097e-15 0)
(4.33036e-31 3.78578e-14 0)
(4.6622e-31 -5.567e-14 -0)
(-3.18187e-32 -1.22204e-15 0)
(1.14921e-32 2.98831e-15 0)
(-6.07366e-27 -1.27151e-12 0)
(1.42114e-28 4.07334e-13 0)
(-7.67803e-29 -1.77587e-13 0)
(8.40754e-30 3.69722e-14 0)
(-5.89058e-30 -9.40511e-14 0)
(-4.3552e-30 -5.2027e-14 0)
(1.19598e-31 2.93131e-15 0)
(-3.12652e-30 -5.74756e-14 0)
(-4.43793e-30 -6.04167e-14 0)
(-7.04968e-30 -6.05316e-14 0)
(8.3139e-31 6.08321e-15 0)
(1.09816e-30 1.97401e-14 0)
(-4.15481e-30 6.84136e-14 -0)
(-1.91443e-30 2.21567e-14 -0)
(1.0787e-31 -9.59111e-15 -0)
(2.11908e-31 2.22899e-14 0)
(1.30089e-30 3.52504e-14 0)
(-4.82847e-30 6.71118e-14 -0)
(4.24814e-31 -4.6119e-15 -0)
(3.04611e-31 -1.1794e-14 -0)
(-3.30922e-25 4.39307e-12 -0)
(-1.04268e-25 -6.65113e-12 0)
(-5.43634e-27 1.48249e-12 -0)
(-3.0125e-28 -3.53621e-13 0)
(-6.04447e-30 4.62006e-14 -0)
(-3.10408e-30 -2.6119e-14 0)
(-5.96008e-30 -4.57205e-14 0)
(1.35517e-29 4.44322e-14 0)
(2.8769e-29 1.26104e-13 0)
(1.29232e-29 1.00834e-13 0)
(4.30444e-30 1.3062e-13 0)
(-1.2077e-29 1.28708e-13 -0)
(-1.01936e-29 5.99888e-14 -0)
(1.0437e-30 -6.88367e-15 -0)
(-4.29376e-30 4.24756e-14 -0)
(7.45274e-31 -2.17445e-14 -0)
(-7.06563e-30 -6.07237e-14 0)
(7.57678e-31 2.45506e-14 0)
(-4.66124e-30 3.6092e-14 -0)
(1.11026e-30 -1.88156e-14 -0)
(-1.35751e-25 -2.45006e-12 0)
(-6.03069e-26 4.83424e-12 -0)
(-2.85649e-27 -1.04718e-12 0)
(-1.66816e-28 2.5748e-13 -0)
(4.18713e-30 2.73685e-14 0)
(-1.60271e-30 1.47832e-14 -0)
(-1.30839e-31 -2.53637e-14 0)
(1.9236e-30 1.32459e-14 0)
(1.4291e-30 9.94152e-15 0)
(4.44467e-30 9.70289e-14 0)
(-5.07368e-31 3.79007e-14 -0)
(-6.5356e-31 1.0516e-14 -0)
(-1.08467e-30 9.14969e-15 -0)
(-3.4044e-30 2.21574e-14 -0)
(1.39683e-30 -2.02233e-14 -0)
(-1.93886e-30 -3.99049e-14 0)
(1.99384e-30 3.38349e-14 0)
(-2.38833e-31 1.27641e-14 -0)
(1.6962e-30 -2.46855e-14 -0)
(-6.84067e-31 1.59432e-14 -0)
(-2.54036e-26 1.59775e-12 -0)
(-5.00886e-27 -1.45362e-12 0)
(-3.80786e-28 4.63632e-13 -0)
(-3.92223e-30 -2.38128e-14 0)
(-3.75352e-30 9.13667e-14 -0)
(-2.56412e-29 1.23957e-13 -0)
(-3.6263e-30 1.8459e-14 -0)
(1.50666e-30 -1.25144e-14 -0)
(4.70996e-30 -6.60509e-14 -0)
(1.96436e-31 -9.89039e-14 -0)
(-5.83919e-30 -5.58352e-14 0)
(-1.46976e-31 -1.03035e-14 0)
(1.18709e-30 -1.87131e-14 -0)
(4.28321e-30 -6.14915e-14 -0)
(-1.25927e-31 -1.34285e-14 0)
(-5.01624e-31 -7.76155e-15 0)
(7.05371e-31 8.10835e-15 0)
(-1.15735e-30 7.03379e-14 -0)
(-4.52425e-31 6.0904e-15 -0)
(1.17308e-30 -1.51643e-14 -0)
(-9.62282e-26 2.88623e-12 -0)
(-2.03476e-26 -3.06141e-12 0)
(-1.13149e-27 6.89036e-13 -0)
(-5.7314e-29 -1.9219e-13 0)
(2.33569e-31 2.68006e-14 0)
(1.35477e-31 4.48456e-15 0)
(7.53917e-31 -2.08665e-14 -0)
(8.57945e-32 -2.6664e-15 -0)
(1.50192e-32 -1.58656e-15 -0)
(4.48629e-31 -2.75054e-14 -0)
(1.16613e-31 -2.13469e-14 -0)
(-1.45379e-31 1.96745e-15 -0)
(2.36937e-30 -9.42575e-14 -0)
(-3.52447e-30 -6.34682e-14 0)
(-3.76067e-30 -5.57603e-14 0)
(-1.14701e-31 -1.61476e-15 0)
(-6.83208e-30 -8.1732e-14 0)
(-1.36395e-30 -1.81375e-14 0)
(-7.21078e-32 1.18522e-14 -0)
(2.14034e-31 -4.94057e-15 -0)
(-4.01271e-25 -5.7772e-12 0)
(-8.80799e-26 6.35767e-12 -0)
(-5.23349e-27 -1.52068e-12 0)
(-1.91621e-28 3.518e-13 -0)
(-1.64251e-29 -8.44028e-14 0)
(5.49364e-31 1.94196e-14 0)
(1.19075e-32 2.91928e-14 0)
(-2.84206e-31 -3.83451e-14 0)
(-9.02358e-31 -7.99905e-15 0)
(3.27078e-31 3.74221e-15 0)
(1.68864e-31 2.23999e-15 0)
(1.83e-30 2.81528e-14 0)
(3.59775e-30 5.54279e-14 0)
(6.0539e-30 1.14604e-13 0)
(1.24588e-31 4.05603e-14 0)
(-8.76417e-31 1.07236e-14 -0)
(7.58016e-31 -7.27709e-15 -0)
(7.99691e-31 -8.92844e-14 -0)
(2.55457e-32 -1.04384e-15 -0)
(-4.3569e-32 -2.94042e-14 0)
(-6.40423e-26 1.81501e-12 -0)
(-2.36088e-26 -3.08699e-12 0)
(-1.14201e-27 6.70055e-13 -0)
(-6.50202e-29 -1.60468e-13 0)
(-5.79501e-30 5.8144e-14 -0)
(-4.74325e-30 -5.00335e-14 0)
(3.85139e-30 2.97135e-14 0)
(2.3416e-30 3.40761e-14 0)
(2.01908e-31 3.37033e-15 0)
(2.08371e-30 5.95116e-14 0)
(-3.87412e-34 -5.62079e-17 0)
(8.10251e-32 2.27754e-15 0)
(-4.4259e-31 2.78657e-14 -0)
(-1.22398e-30 -4.37621e-14 0)
(-5.47584e-30 -3.63391e-14 0)
(6.1762e-30 5.13358e-14 0)
(-7.39127e-30 8.06726e-14 -0)
(4.49908e-31 -3.11753e-15 -0)
(7.50026e-31 -1.24084e-14 -0)
(1.63223e-31 -8.0677e-15 -0)
(-9.30964e-26 2.5026e-12 -0)
(-2.60882e-26 -3.32881e-12 0)
(-1.61442e-27 8.01406e-13 -0)
(-9.03967e-29 -2.47559e-13 0)
(2.29761e-30 -2.83679e-14 -0)
(-5.49318e-30 -5.14681e-14 0)
(-8.19605e-30 -5.03947e-14 0)
(1.36065e-30 1.98415e-14 0)
(-2.91372e-31 8.14391e-15 -0)
(1.43704e-32 -1.1172e-15 -0)
(1.76723e-31 -7.18214e-15 -0)
(-4.14177e-30 -7.02489e-14 0)
(-1.17493e-29 -8.65305e-14 0)
(-2.38867e-30 -2.14978e-14 0)
(-4.9391e-31 -6.1963e-15 0)
(-3.29413e-30 -1.9033e-14 0)
(-9.09415e-32 8.99891e-14 -0)
(-1.61637e-29 8.75063e-14 -0)
(1.27043e-30 -2.01904e-14 -0)
(-7.8612e-32 -4.57332e-15 0)
(-3.55138e-25 -5.23915e-12 0)
(-9.07817e-26 6.22612e-12 -0)
(-5.12683e-27 -1.52773e-12 0)
(-1.49045e-28 2.26275e-13 -0)
(-4.47464e-29 -1.59846e-13 0)
(-8.02252e-30 -6.3357e-14 0)
(-1.30971e-29 -1.3051e-13 0)
(-7.99295e-30 -1.04516e-13 0)
(-3.41075e-30 -5.56284e-14 0)
(-5.80904e-30 -6.40763e-14 0)
(-7.44737e-31 -4.65534e-15 0)
(3.68254e-31 2.68384e-15 0)
(9.07199e-30 6.81405e-14 0)
(-1.78208e-31 8.51505e-14 -0)
(-5.55741e-30 3.15283e-14 -0)
(1.26288e-30 -2.72611e-14 -0)
(-3.40105e-30 -3.53013e-14 0)
(1.67518e-30 4.70062e-14 0)
(-1.25664e-30 1.22398e-14 -0)
(1.6435e-30 -1.89429e-14 -0)
(-3.35476e-25 6.27401e-12 -0)
(-6.13246e-26 -5.54502e-12 0)
(-2.90758e-27 1.23343e-12 -0)
(-1.89438e-28 -3.04364e-13 0)
(6.433e-30 4.46008e-14 0)
(7.56852e-30 4.29059e-14 0)
(-2.18742e-30 1.58818e-13 -0)
(-1.84819e-30 3.26939e-14 -0)
(-6.1859e-30 8.87997e-14 -0)
(-3.52938e-30 2.68647e-14 -0)
(-1.37364e-30 2.04234e-14 -0)
(-1.51593e-30 2.3481e-14 -0)
(-1.39002e-30 4.48139e-14 -0)
(-1.05103e-30 -3.57468e-14 0)
(2.15122e-30 3.8831e-14 0)
(-1.16743e-30 1.32877e-14 -0)
(-1.7606e-30 2.27241e-14 -0)
(1.0443e-30 -2.37084e-14 -0)
(-3.60295e-30 3.23296e-14 -0)
(-6.09662e-31 6.33128e-15 -0)
(-1.59002e-25 -4.77731e-12 0)
(-2.28045e-26 3.57397e-12 -0)
(-1.2807e-27 -7.95994e-13 0)
(-6.39239e-29 2.00941e-13 -0)
(-1.31096e-30 -9.25721e-15 0)
(3.05405e-30 6.71212e-14 0)
(1.6714e-31 1.33668e-14 0)
(-6.71129e-30 7.61197e-14 -0)
(3.79755e-30 -1.8382e-14 -0)
(1.6819e-29 -9.58902e-14 -0)
(6.01554e-30 -9.88736e-14 -0)
(-1.69483e-32 -9.14159e-14 0)
(-4.90517e-30 -1.22122e-13 0)
(-1.31261e-29 -9.56716e-14 0)
(-7.14904e-30 -3.89104e-14 0)
(-4.41247e-31 2.79308e-14 -0)
(5.14764e-30 -5.38586e-14 -0)
(7.73526e-31 -4.0053e-14 -0)
(-1.01766e-30 -3.00174e-14 0)
(-2.23038e-31 -2.27337e-14 0)
(-2.53704e-27 1.96595e-13 -0)
(-2.75028e-27 -8.93382e-13 0)
(-2.54471e-28 3.54173e-13 -0)
(5.19785e-30 6.59022e-14 0)
(-2.34741e-29 8.00306e-14 -0)
(2.92414e-30 -1.63056e-14 -0)
(8.03356e-30 -6.16746e-14 -0)
(5.80941e-30 -5.54926e-14 -0)
(1.11493e-29 -9.49423e-14 -0)
(-1.52451e-30 -4.82691e-14 0)
(-2.31356e-30 -2.45579e-14 0)
(-6.58219e-32 -1.07685e-14 0)
(-3.73667e-31 5.40318e-15 -0)
(2.50289e-31 -5.22312e-15 -0)
(1.25719e-31 -7.42773e-15 -0)
(-1.40037e-31 -5.3129e-15 0)
(-1.33529e-31 -3.6883e-15 0)
(9.97029e-32 1.57656e-15 0)
(1.57673e-31 7.71481e-15 0)
(-3.86037e-31 2.77581e-14 -0)
(-1.17689e-25 4.39456e-12 -0)
(-1.46003e-26 -2.88482e-12 0)
(-8.51584e-28 7.18651e-13 -0)
(-2.46679e-29 -7.85488e-14 0)
(-1.6105e-29 1.25392e-13 -0)
(-2.95412e-30 2.33123e-14 -0)
(-6.17793e-30 6.82569e-14 -0)
(-6.32207e-32 -1.6363e-14 0)
(-8.6376e-32 -1.1813e-15 0)
(3.33294e-31 2.12606e-14 0)
(-1.47112e-30 1.05467e-14 -0)
(-7.30307e-30 8.13346e-14 -0)
(-1.15779e-29 8.28878e-14 -0)
(-4.88427e-30 4.62891e-14 -0)
(-1.10169e-30 1.82186e-14 -0)
(-4.14543e-31 2.48949e-14 -0)
(-1.01081e-31 2.63444e-15 -0)
(-3.00449e-31 6.98782e-15 -0)
(-2.87534e-30 2.65627e-14 -0)
(5.47887e-31 -1.4582e-14 -0)
(-5.04067e-25 -6.45228e-12 0)
(-1.2218e-25 7.25014e-12 -0)
(-6.89548e-27 -1.85187e-12 0)
(-1.55722e-28 2.01507e-13 -0)
(-9.12879e-29 -2.58465e-13 0)
(-1.40954e-29 -7.5962e-14 0)
(-3.29679e-29 -1.10018e-13 0)
(4.27639e-30 2.12194e-14 0)
(4.81736e-30 5.50765e-14 0)
(-4.56092e-30 5.83365e-14 -0)
(1.13825e-29 -5.06229e-14 -0)
(1.08983e-29 -9.55529e-14 -0)
(7.23965e-30 -8.7784e-14 -0)
(3.01514e-30 -6.10762e-14 -0)
(4.91059e-31 -3.55582e-14 -0)
(-1.14312e-30 -3.25076e-14 0)
(-2.02832e-30 -5.04361e-14 0)
(-2.52025e-32 9.78565e-15 -0)
(-2.09409e-31 3.633e-15 -0)
(1.43015e-30 -3.67597e-14 -0)
(-3.60921e-25 4.63331e-12 -0)
(-1.17921e-25 -6.96635e-12 0)
(-6.2562e-27 1.60547e-12 -0)
(-3.26552e-28 -3.74252e-13 0)
(-1.59428e-29 1.03345e-13 -0)
(-2.72136e-30 -2.47062e-14 0)
(-3.03198e-33 -3.26745e-17 0)
(-7.5774e-31 -6.85886e-15 0)
(6.61404e-31 4.09837e-15 0)
(5.28039e-30 7.59852e-14 0)
(-4.60732e-30 8.17348e-14 -0)
(-1.90305e-29 9.24915e-14 -0)
(-8.7847e-30 5.22486e-14 -0)
(-1.04448e-29 5.61127e-14 -0)
(1.78953e-30 -9.56155e-15 -0)
(-1.1091e-30 1.22521e-14 -0)
(-1.98766e-30 5.14548e-14 -0)
(1.10086e-31 -1.74821e-15 -0)
(6.46291e-31 -3.05618e-14 -0)
(-6.29136e-31 2.215e-14 -0)
(-9.27027e-28 -9.59512e-14 0)
(-1.90241e-27 7.70899e-13 -0)
(-6.48216e-29 -7.46574e-14 0)
(-2.02085e-29 2.1295e-13 -0)
(1.12721e-29 1.19909e-13 0)
(7.17202e-30 1.17059e-13 0)
(1.07597e-30 1.4122e-13 0)
(4.47554e-31 1.03475e-13 0)
(4.58132e-30 8.02695e-14 0)
(1.03433e-30 6.99752e-14 0)
(-1.59203e-29 1.5829e-13 -0)
(-1.43408e-29 6.73712e-14 -0)
(-1.29456e-29 5.57549e-14 -0)
(-1.18888e-29 5.20727e-14 -0)
(-3.62926e-30 1.72155e-14 -0)
(1.84945e-30 -1.42907e-14 -0)
(-3.25803e-30 4.79787e-14 -0)
(1.75441e-31 -2.61458e-15 -0)
(1.56557e-31 -3.74896e-15 -0)
(2.11345e-31 -7.13719e-15 -0)
(-2.45433e-25 -3.59161e-12 0)
(-8.28858e-26 5.92562e-12 -0)
(-4.8104e-27 -1.42028e-12 0)
(-1.74214e-28 2.91285e-13 -0)
(-2.3799e-29 -1.17213e-13 0)
(-1.62731e-30 -5.09481e-14 0)
(-1.02784e-29 -6.03118e-14 0)
(-1.0143e-30 -1.09115e-14 0)
(1.03983e-31 1.2255e-14 0)
(-2.44772e-31 8.27121e-15 -0)
(-1.12926e-30 1.52136e-14 -0)
(8.00684e-30 -4.40592e-14 -0)
(1.08704e-29 -6.18561e-14 -0)
(6.64055e-30 -6.30817e-14 -0)
(2.25736e-30 -2.59405e-14 -0)
(4.85082e-30 -4.14904e-14 -0)
(-4.32301e-30 -7.60648e-14 0)
(3.66379e-30 3.60492e-14 0)
(-4.38545e-31 1.3449e-14 -0)
(1.10568e-30 -3.36515e-14 -0)
(-1.57675e-25 3.18463e-12 -0)
(-4.48596e-26 -4.33563e-12 0)
(-2.88821e-27 1.09758e-12 -0)
(-1.01036e-28 -2.21985e-13 0)
(-1.03628e-29 7.37381e-14 -0)
(-4.10212e-31 3.668e-14 -0)
(2.8582e-30 8.22128e-14 0)
(-1.23012e-30 6.10188e-14 -0)
(-1.88111e-30 5.64541e-14 -0)
(7.23623e-32 -1.69867e-15 -0)
(-4.74893e-31 2.90733e-14 -0)
(-4.19703e-30 6.73872e-14 -0)
(-5.65722e-30 3.81974e-14 -0)
(-4.73671e-30 2.73472e-14 -0)
(-7.67519e-30 5.09889e-14 -0)
(-2.78076e-30 1.97225e-14 -0)
(8.23829e-31 -1.07407e-14 -0)
(9.43991e-31 -2.81062e-14 -0)
(-2.05345e-31 3.07909e-15 -0)
(-9.01175e-31 1.39983e-14 -0)
(-7.22525e-26 2.09086e-12 -0)
(-2.12057e-26 -3.21283e-12 0)
(-8.43021e-28 5.22046e-13 -0)
(-6.45157e-29 -2.18207e-13 0)
(-8.90162e-31 -3.54275e-14 0)
(-5.88605e-30 -5.4583e-14 0)
(-1.81218e-30 -6.28016e-14 0)
(5.15531e-30 -6.6693e-14 -0)
(9.473e-30 -8.07136e-14 -0)
(5.314e-30 -6.37826e-14 -0)
(2.00112e-30 -9.2471e-14 -0)
(-1.28105e-30 -4.53562e-14 0)
(6.01131e-31 -5.45594e-15 -0)
(4.83964e-30 -2.5709e-14 -0)
(8.59642e-30 -6.92481e-14 -0)
(1.1036e-30 -2.91437e-14 -0)
(-8.90671e-31 8.58455e-15 -0)
(5.01403e-31 -4.05296e-15 -0)
(4.75159e-31 -7.51557e-15 -0)
(1.85892e-30 -3.82831e-14 -0)
)
;

boundaryField
{
    movingWall
    {
        type            calculated;
        value           nonuniform List<vector> 
20
(
(0 4.03904e-12 -0)
(0 -4.04909e-12 -0)
(0 5.315e-14 -0)
(0 -4.74859e-13 -0)
(0 -3.36489e-13 -0)
(0 -4.44462e-13 -0)
(0 -4.69985e-13 -0)
(0 -5.18285e-13 -0)
(0 -4.87897e-13 -0)
(0 -3.64844e-13 -0)
(0 -3.22018e-13 -0)
(0 -3.02009e-13 -0)
(0 -2.44804e-13 -0)
(0 -2.20649e-13 -0)
(0 -1.48265e-13 -0)
(0 -1.35265e-13 -0)
(0 -8.02333e-14 -0)
(0 -4.05296e-15 -0)
(0 -7.51557e-15 -0)
(0 -5.5587e-14 -0)
)
;
    }
    fixedWalls
    {
        type            calculated;
        value           nonuniform List<vector> 
60
(
(0 -4.17567e-11 -0)
(0 -2.66964e-12 -0)
(0 2.85592e-11 -0)
(0 -2.03197e-11 -0)
(0 6.71221e-12 -0)
(0 1.3553e-11 -0)
(0 -2.79999e-11 -0)
(0 1.31652e-11 -0)
(0 1.44463e-11 -0)
(0 -2.70329e-11 -0)
(0 2.34212e-11 -0)
(0 -1.54002e-11 -0)
(0 4.37592e-12 -0)
(0 1.29348e-11 -0)
(0 -3.15742e-11 -0)
(0 2.96952e-11 -0)
(0 -3.24116e-12 -0)
(0 -2.54909e-11 -0)
(0 1.90727e-11 -0)
(0 1.31178e-11 -0)
(0 1.53828e-15 -0)
(0 -1.0331e-14 -0)
(0 -2.3603e-14 -0)
(0 9.94242e-15 -0)
(0 -3.09433e-14 -0)
(0 -1.73287e-14 -0)
(0 -2.65124e-14 -0)
(0 -8.09268e-15 -0)
(0 6.87571e-15 -0)
(0 -3.47044e-14 -0)
(0 -1.14124e-14 -0)
(0 -2.31807e-14 -0)
(0 2.15422e-14 -0)
(0 -1.50291e-14 -0)
(0 -4.26672e-14 -0)
(0 1.57437e-14 -0)
(0 -1.18447e-14 -0)
(0 -4.02477e-14 -0)
(0 1.35405e-15 -0)
(0 -4.65279e-14 -0)
(0 -8.0518e-12 -0)
(0 1.08466e-11 -0)
(0 -1.47826e-12 -0)
(0 7.34892e-13 -0)
(0 1.1992e-13 -0)
(0 2.00325e-13 -0)
(0 9.33377e-14 -0)
(0 9.54792e-14 -0)
(0 8.84009e-14 -0)
(0 3.04604e-15 -0)
(0 2.40992e-15 -0)
(0 1.01527e-14 -0)
(0 -7.61583e-14 -0)
(0 -9.65531e-14 -0)
(0 -1.79743e-14 -0)
(0 2.03097e-15 -0)
(0 1.07527e-14 -0)
(0 -9.02777e-14 -0)
(0 4.31869e-14 -0)
(0 2.98831e-15 -0)
)
;
    }
    frontAndBack
    {
        type            empty;
    }
}


// ************************************************************************* //
