/*--------------------------------*- C++ -*----------------------------------*\
| =========                 |                                                 |
| \\      /  F ield         | OpenFOAM: The Open Source CFD Toolbox           |
|  \\    /   O peration     | Version:  2506                                  |
|   \\  /    A nd           | Website:  www.openfoam.com                      |
|    \\/     M anipulation  |                                                 |
\*---------------------------------------------------------------------------*/
FoamFile
{
    version     2.0;
    format      ascii;
    arch        "LSB;label=32;scalar=64";
    class       volScalarField;
    location    "8.375";
    object      QField;
}
// * * * * * * * * * * * * * * * * * * * * * * * * * * * * * * * * * * * * * //

dimensions      [0 0 -2 0 0 0 0];

internalField   nonuniform List<scalar> 
400
(
-3.5568e-24
-2.30516e-24
-2.10454e-25
1.94522e-26
-9.50375e-27
-5.28124e-28
1.2251e-28
0
-4.33241e-28
-5.05691e-28
-1.30642e-28
-5.50378e-28
-1.0983e-28
-9.0528e-28
0
0
2.91453e-28
7.91407e-29
0
0
-7.00063e-24
-3.2719e-24
-3.25615e-25
1.43279e-26
-1.73597e-28
-1.18349e-28
-6.13577e-29
-4.70958e-28
3.36458e-28
3.42686e-28
0
0
-2.40934e-28
-1.34126e-28
7.20105e-28
-8.53822e-28
2.2078e-28
4.86699e-28
-8.41266e-28
0
-1.1848e-23
-4.48999e-24
-3.11089e-26
-2.37246e-27
-2.23187e-27
-1.04151e-27
6.01179e-28
-7.76244e-28
1.91724e-27
1.58714e-27
2.40689e-27
1.88037e-27
3.13262e-28
-1.82259e-28
-6.3613e-28
0
3.53103e-28
-1.44295e-28
1.80165e-28
0
-1.22622e-23
-3.21286e-24
-2.1428e-25
-3.72526e-27
-4.87321e-27
-1.76562e-27
-8.85824e-28
-3.83473e-27
-1.6233e-27
9.24993e-28
9.84774e-29
-2.92999e-28
0
-3.5627e-28
-2.99417e-28
-1.89215e-28
1.82412e-28
-2.56501e-28
8.31274e-29
-2.52804e-28
-7.49933e-24
-2.20672e-24
-9.76695e-26
-9.35843e-27
1.6232e-27
9.33048e-28
-2.34353e-28
0
2.26594e-28
1.43023e-27
6.66178e-29
-4.55407e-28
-2.27466e-28
9.61702e-28
-3.70022e-28
0
0
3.65193e-28
0
0
-1.96614e-24
-1.2815e-24
-3.49131e-26
8.32029e-27
0
-6.37359e-28
-1.69097e-28
0
-9.98096e-28
1.08522e-29
-1.56076e-28
2.7505e-28
1.05241e-27
5.01882e-28
8.40334e-29
0
3.38914e-29
-2.22743e-28
0
-2.13696e-28
9.68555e-25
-1.73257e-24
2.51684e-25
7.64104e-27
9.65521e-28
-1.75077e-28
5.65883e-29
3.04662e-28
-1.88039e-28
0
0
-8.61741e-28
6.60161e-29
5.21021e-28
3.64704e-28
-2.67131e-28
-9.49825e-28
6.48017e-28
0
6.23173e-29
5.47284e-24
3.24479e-25
-6.88397e-26
1.72629e-26
2.33533e-27
6.21476e-28
7.07027e-29
-1.42623e-28
-8.05487e-28
2.87395e-28
0
-3.27642e-29
2.12722e-28
2.935e-28
2.5029e-28
-7.24513e-28
8.75335e-28
-9.52784e-28
0
0
4.03467e-24
5.54175e-26
2.67899e-26
2.20161e-26
-1.40091e-27
7.46616e-28
-2.86154e-28
-2.10303e-29
0
-1.50825e-28
-4.14931e-28
5.93983e-28
4.24089e-28
1.09814e-29
-1.77242e-27
-6.7046e-28
1.93958e-27
1.56743e-29
0
0
1.06684e-24
-1.0914e-24
1.96113e-25
-2.22226e-26
6.38578e-27
-1.46027e-27
2.76684e-28
-1.10147e-27
-1.49578e-29
-1.07615e-28
2.31217e-28
0
-1.49055e-28
1.45581e-27
1.85787e-28
-7.0726e-28
2.22161e-28
1.58144e-28
2.63037e-28
-6.15192e-28
7.40595e-24
1.81662e-24
1.83822e-25
1.26377e-26
7.49831e-28
-1.14891e-29
3.15677e-27
-2.94782e-28
6.0861e-28
-1.44881e-27
-1.81106e-28
-4.69639e-28
-7.61365e-28
2.34234e-28
-1.63372e-27
0
-6.38948e-28
-2.41009e-28
1.41613e-28
-1.08659e-27
8.36356e-24
2.00165e-24
1.41681e-25
9.42757e-27
-4.54353e-27
-1.22851e-27
0
1.18772e-27
-3.65924e-28
7.43471e-28
1.42776e-27
8.2134e-28
1.48551e-27
1.1674e-27
-8.29398e-28
0
-1.90531e-29
6.01473e-29
-2.78527e-28
-1.18485e-28
7.20491e-24
1.18529e-24
8.4417e-26
2.24417e-27
1.39973e-27
0
4.04652e-28
3.18975e-28
3.49937e-28
-4.62168e-28
-6.90397e-29
-4.42802e-28
0
-1.31577e-27
-6.6191e-28
0
0
0
-7.70594e-28
1.77012e-29
6.5545e-24
8.32523e-25
9.1722e-26
-5.55324e-28
1.83173e-27
-2.08088e-27
-2.22713e-27
-1.66002e-27
-5.5538e-28
0
-2.59441e-27
1.58254e-30
9.17897e-29
-4.29399e-28
-2.40869e-28
-5.99073e-29
0
0
-1.46998e-29
6.77579e-29
-7.78155e-25
-2.1192e-24
3.55495e-25
-4.71902e-26
1.56556e-26
-4.35295e-28
-3.23656e-28
-5.77946e-28
5.18933e-28
9.92398e-28
-4.19754e-28
2.14779e-28
6.80251e-28
-6.48424e-29
2.29123e-28
1.46437e-28
-2.0459e-28
0
0
2.61689e-28
-6.88279e-24
-3.09229e-24
1.54784e-26
3.67485e-27
1.36395e-27
0
-3.16632e-27
-1.60359e-27
1.64758e-28
9.28452e-28
8.18439e-28
3.73172e-28
-5.1214e-28
1.03141e-28
-1.06796e-27
4.89601e-28
-7.35492e-28
-1.74898e-28
5.06504e-29
-1.34307e-28
-7.58301e-24
-2.86058e-24
-2.55759e-25
1.84653e-26
-2.11645e-27
9.36601e-28
3.50908e-28
-4.41223e-28
-9.13882e-28
5.86056e-28
3.03675e-27
7.13462e-28
1.04356e-28
-1.15869e-28
3.36968e-30
0
-5.96558e-28
-4.4616e-28
-3.10653e-29
1.20704e-29
-1.13001e-23
-4.2179e-24
2.35046e-26
-7.13909e-27
3.41539e-27
1.95482e-29
4.77935e-28
-5.05294e-28
2.45016e-28
0
-4.5668e-28
-5.50284e-28
4.14492e-28
4.80931e-28
-3.58379e-28
3.58533e-28
1.18475e-27
1.51589e-28
0
1.77442e-28
-1.06751e-23
-3.82824e-24
-1.21415e-27
-4.32908e-27
1.74623e-27
-9.50309e-28
7.29895e-29
3.69099e-28
-2.19472e-28
0
3.38424e-28
-4.23939e-28
1.22965e-28
-2.18348e-28
-1.74621e-28
-2.00104e-28
-8.70539e-28
2.71351e-29
0
-3.5526e-28
-3.10947e-24
-1.04876e-24
-1.14393e-25
1.09254e-26
-1.01821e-27
-2.41762e-28
-1.85033e-27
-1.45316e-27
-4.5735e-28
1.77637e-28
8.04209e-28
-4.79969e-28
-1.98696e-27
-1.01756e-27
7.07254e-29
5.5258e-29
-4.89122e-28
-4.26361e-28
3.52131e-28
-3.12869e-30
)
;

boundaryField
{
    movingWall
    {
        type            calculated;
        value           nonuniform List<scalar> 
20
(
1.60288e-24
1.27038e-24
-4.34011e-25
5.4186e-26
-6.67292e-27
-1.00355e-27
-9.66955e-27
-8.63031e-27
-1.56632e-27
2.49754e-27
3.23331e-27
-2.75233e-27
-8.15761e-27
-2.35096e-27
6.57536e-28
2.71604e-28
-1.88735e-27
-1.3413e-27
6.85468e-28
-3.00528e-29
)
;
    }
    fixedWalls
    {
        type            calculated;
        value           nonuniform List<scalar> 
60
(
-3.01713e-23
-5.18215e-23
-6.08599e-23
-6.09069e-23
-3.95355e-23
-1.37869e-23
4.96244e-24
1.59771e-23
1.04826e-23
5.02089e-24
3.68912e-23
4.30983e-23
3.43523e-23
2.78516e-23
-2.77513e-24
-3.95258e-23
-5.0465e-23
-6.03663e-23
-5.65312e-23
-2.01945e-23
0
2.79124e-28
0
-3.83701e-28
1.84394e-30
-3.50119e-28
-1.60649e-29
0
0
-1.00793e-27
-1.90175e-27
-1.0637e-28
-1.50782e-28
1.11015e-28
4.21814e-28
-3.07951e-28
1.97762e-29
3.56232e-28
-6.97982e-28
2.49268e-29
9.31456e-24
7.1436e-24
-1.66394e-24
1.43477e-25
-2.6795e-26
2.82552e-27
4.01442e-28
5.91647e-28
-9.73594e-28
-7.60072e-28
0
0
-1.35499e-28
-1.0605e-27
0
0
0
1.29664e-28
-5.42695e-29
0
)
;
    }
    frontAndBack
    {
        type            empty;
    }
}


// ************************************************************************* //
