/*--------------------------------*- C++ -*----------------------------------*\
| =========                 |                                                 |
| \\      /  F ield         | OpenFOAM: The Open Source CFD Toolbox           |
|  \\    /   O peration     | Version:  2506                                  |
|   \\  /    A nd           | Website:  www.openfoam.com                      |
|    \\/     M anipulation  |                                                 |
\*---------------------------------------------------------------------------*/
FoamFile
{
    version     2.0;
    format      ascii;
    arch        "LSB;label=32;scalar=64";
    class       volScalarField;
    location    "8.375";
    object      Uy;
}
// * * * * * * * * * * * * * * * * * * * * * * * * * * * * * * * * * * * * * //

dimensions      [0 1 -1 0 0 0 0];

internalField   nonuniform List<scalar> 
400
(
1.06425e-13
-2.191e-14
5.50836e-15
-9.10114e-16
3.79889e-16
1.11133e-16
1.52996e-16
6.59347e-17
8.63825e-17
7.01042e-17
5.59222e-17
4.6005e-17
-4.56047e-17
-8.05905e-17
3.17482e-17
9.91526e-17
1.14385e-17
-8.3747e-18
2.60374e-17
3.8457e-18
4.77675e-15
3.48887e-16
4.32354e-16
2.27402e-16
6.26318e-17
8.37104e-17
4.08002e-17
5.43974e-17
7.34553e-17
1.16463e-16
1.3667e-16
5.56308e-17
-6.07308e-17
-8.64042e-17
-1.12469e-17
9.5069e-18
3.69042e-17
-7.19466e-17
-9.21126e-17
-2.58276e-17
-7.53283e-14
1.56768e-14
-3.66704e-15
8.519e-16
-1.30831e-16
1.18844e-16
1.30359e-16
3.04998e-16
2.28138e-16
1.28163e-16
3.2954e-17
-9.38328e-17
-1.69924e-16
-1.51619e-16
-1.01088e-16
-3.42742e-17
1.16357e-16
3.08619e-17
-1.29149e-16
-5.90075e-17
5.5407e-14
-1.24749e-14
2.72779e-15
-6.4788e-16
1.52991e-16
-1.08414e-16
5.15854e-18
1.45223e-16
1.4375e-16
4.58077e-17
-1.33867e-17
-6.21492e-17
-1.18547e-16
-1.53646e-16
-6.90704e-17
4.85869e-17
5.89285e-17
-1.87113e-17
-6.87122e-17
-4.29066e-17
-1.58996e-14
3.44578e-15
-8.21311e-16
1.64711e-16
-4.1082e-17
-2.06855e-16
-1.96452e-16
-1.20394e-16
-7.13081e-17
-1.98613e-18
1.04579e-16
1.42647e-17
-6.34364e-17
-6.96553e-17
9.37764e-18
6.46294e-17
8.69931e-17
-1.64541e-17
-7.4285e-17
-7.73581e-17
-3.33404e-14
6.64648e-15
-1.64213e-15
2.98215e-16
8.71509e-18
3.02096e-17
-3.61305e-17
-3.21761e-17
-9.46652e-18
-1.63106e-17
-5.46276e-18
-7.38923e-17
-2.51372e-17
5.55313e-17
6.74436e-17
7.10327e-17
8.35913e-17
7.52006e-17
-6.08389e-18
-4.33218e-17
6.94577e-14
-1.38541e-14
3.44155e-15
-5.44688e-16
1.94604e-16
2.82892e-17
4.07892e-19
7.41179e-18
1.12808e-16
8.74023e-17
7.5386e-17
6.50024e-17
6.49086e-17
5.28246e-17
3.07167e-18
-8.17275e-17
-1.04165e-16
-8.95668e-18
-2.44728e-17
1.48173e-18
-3.52847e-14
7.64784e-15
-1.70435e-15
4.05191e-16
-9.96665e-17
9.48016e-17
1.29618e-16
6.87169e-17
5.99075e-17
3.50135e-17
6.89248e-18
3.55756e-17
-1.5883e-17
2.79689e-17
1.50687e-16
1.2031e-16
-9.16206e-17
-1.44315e-16
-6.04453e-17
-2.02317e-17
-3.71999e-14
7.83712e-15
-2.01448e-15
3.65152e-16
-8.09935e-17
1.0673e-16
1.62637e-16
6.85761e-17
-3.57779e-17
-1.28629e-17
-2.46059e-17
5.89585e-17
1.35782e-16
1.11112e-16
7.97104e-17
1.73075e-16
-1.01058e-18
-1.84714e-16
-6.29224e-17
1.71893e-17
6.77855e-14
-1.45808e-14
3.35584e-15
-6.58688e-16
2.79934e-16
1.26624e-16
1.00353e-16
7.64757e-17
6.13132e-17
9.06581e-17
1.59975e-16
1.37212e-16
1.33136e-16
-2.09286e-18
-1.76267e-16
-4.63253e-17
9.63435e-17
3.56375e-17
-1.02668e-16
-8.6761e-17
-5.34707e-14
1.10594e-14
-2.3573e-15
6.22406e-16
1.44235e-16
1.76398e-16
-1.37731e-17
-5.65302e-17
-6.96612e-17
-1.31376e-16
-6.72579e-17
-6.45599e-17
-3.10176e-17
2.94022e-17
5.53995e-17
-8.78576e-17
-7.74775e-17
-4.40478e-17
-1.11444e-16
-9.62937e-17
3.32829e-14
-6.38071e-15
1.60893e-15
-3.18122e-16
1.41615e-16
4.55006e-17
1.25041e-17
-8.81676e-17
-2.06591e-16
-1.75399e-16
-6.08407e-17
1.85397e-19
4.01662e-17
1.37199e-16
1.83731e-16
-1.57979e-17
-9.55769e-17
-1.93126e-17
3.39023e-17
9.81088e-18
-1.29049e-14
3.0785e-15
-7.18493e-16
7.88722e-17
-2.93313e-16
-1.79333e-16
-1.30257e-16
-1.04688e-16
-1.17432e-16
3.15836e-17
9.42082e-17
6.11242e-18
-6.91569e-17
-4.79194e-17
-1.69257e-17
2.63579e-17
3.62034e-17
6.32409e-17
2.04378e-17
-1.39072e-17
-2.67806e-14
5.0611e-15
-1.18498e-15
3.14046e-16
-1.28438e-16
-1.26719e-16
-9.051e-17
3.86365e-18
7.31196e-17
1.56766e-17
-1.39486e-16
-8.97905e-17
-1.39681e-16
-1.05517e-16
-6.04708e-17
-1.66517e-17
-3.83689e-17
-4.29961e-17
-1.08247e-16
-3.75728e-17
7.81223e-14
-1.68521e-14
3.72351e-15
-7.72788e-16
3.53192e-16
1.85558e-16
2.99661e-16
2.01532e-16
8.74667e-17
-7.81829e-17
-2.24848e-16
-1.14055e-16
-8.24712e-17
-4.93669e-17
-1.381e-17
3.51647e-17
4.02156e-17
-2.57546e-18
-5.76409e-17
-3.89054e-17
-7.78971e-14
1.69273e-14
-3.89679e-15
8.72546e-16
-1.54268e-16
1.10149e-16
9.27936e-17
1.10476e-16
1.61382e-16
6.94923e-17
-5.63691e-17
-2.05754e-16
-1.68133e-16
-1.86139e-16
-1.87159e-16
-9.05237e-17
-3.86291e-17
-6.29708e-17
-2.1147e-17
-2.84034e-17
9.66145e-15
-2.46778e-15
8.68253e-16
-9.4898e-17
9.40053e-17
6.12685e-17
7.61911e-18
4.32525e-18
5.70741e-17
1.47814e-17
-1.00577e-16
-2.12862e-16
-2.32187e-16
-2.28311e-16
-2.10813e-16
-1.29416e-16
-6.79059e-17
-6.71013e-17
-4.17601e-17
-2.96118e-17
6.83352e-14
-1.39877e-14
3.38694e-15
-5.98087e-16
2.03041e-16
3.19405e-17
1.70421e-16
9.29572e-17
8.48488e-18
-2.95932e-17
-7.42272e-17
-1.81729e-16
-1.75737e-16
-1.05269e-16
-8.70206e-17
-1.16914e-16
5.68332e-17
1.01633e-16
-3.26081e-17
-3.28566e-17
-4.95114e-14
1.03467e-14
-2.63143e-15
4.55147e-16
-1.40535e-16
-1.11835e-17
3.47658e-17
-2.01597e-17
-3.3321e-17
-4.25994e-17
-1.63343e-17
-6.22824e-17
-1.48105e-16
-1.73206e-16
-1.50527e-16
-1.40994e-16
-7.67013e-17
-3.35866e-17
-6.66902e-17
-6.43775e-17
-3.45563e-14
6.60032e-15
-1.61484e-15
2.95663e-16
2.51263e-17
1.07837e-16
2.88556e-17
-7.72991e-17
-1.17366e-16
-8.33143e-17
-2.16405e-17
2.82442e-17
-1.10179e-16
-1.88247e-16
-1.24139e-16
-3.78673e-17
-1.03753e-16
-1.23713e-16
-6.32232e-17
-4.85571e-17
)
;

boundaryField
{
    movingWall
    {
        type            calculated;
        value           uniform -0;
    }
    fixedWalls
    {
        type            calculated;
        value           uniform -0;
    }
    frontAndBack
    {
        type            empty;
    }
}


// ************************************************************************* //
