/*--------------------------------*- C++ -*----------------------------------*\
| =========                 |                                                 |
| \\      /  F ield         | OpenFOAM: The Open Source CFD Toolbox           |
|  \\    /   O peration     | Version:  2506                                  |
|   \\  /    A nd           | Website:  www.openfoam.com                      |
|    \\/     M anipulation  |                                                 |
\*---------------------------------------------------------------------------*/
FoamFile
{
    version     2.0;
    format      ascii;
    arch        "LSB;label=32;scalar=64";
    class       volVectorField;
    location    "8.375";
    object      vorticityField;
}
// * * * * * * * * * * * * * * * * * * * * * * * * * * * * * * * * * * * * * //

dimensions      [0 0 -1 0 0 0 0];

internalField   nonuniform List<vector> 
400
(
(0 -0 7.63833e-12)
(0 -0 -9.8748e-12)
(0 -0 2.04577e-12)
(0 -0 -5.39952e-13)
(0 -0 2.08096e-14)
(0 -0 -2.26893e-14)
(0 -0 -3.16249e-14)
(0 -0 -6.66135e-15)
(0 -0 4.16954e-16)
(0 -0 -3.04604e-15)
(0 -0 5.18002e-14)
(0 -0 4.40574e-14)
(0 -0 4.15506e-14)
(0 -0 7.73529e-15)
(0 -0 1.79743e-14)
(0 -0 -2.03097e-15)
(0 -0 -3.78578e-14)
(0 -0 5.567e-14)
(0 -0 1.22204e-15)
(0 -0 -2.98831e-15)
(0 -0 1.27151e-12)
(0 -0 -4.07334e-13)
(0 -0 1.77587e-13)
(0 -0 -3.69722e-14)
(0 -0 9.40511e-14)
(0 -0 5.2027e-14)
(0 -0 -2.93131e-15)
(0 -0 5.74756e-14)
(0 -0 6.04167e-14)
(0 -0 6.05316e-14)
(0 -0 -6.08321e-15)
(0 -0 -1.97401e-14)
(0 -0 -6.84136e-14)
(0 -0 -2.21567e-14)
(0 -0 9.59111e-15)
(0 -0 -2.22899e-14)
(0 -0 -3.52504e-14)
(0 -0 -6.71118e-14)
(0 -0 4.6119e-15)
(0 -0 1.1794e-14)
(0 -0 -4.39307e-12)
(0 -0 6.65113e-12)
(0 -0 -1.48249e-12)
(0 -0 3.53621e-13)
(0 -0 -4.62006e-14)
(0 -0 2.6119e-14)
(0 -0 4.57205e-14)
(0 -0 -4.44322e-14)
(0 -0 -1.26104e-13)
(0 -0 -1.00834e-13)
(0 -0 -1.3062e-13)
(0 -0 -1.28708e-13)
(0 -0 -5.99888e-14)
(0 -0 6.88367e-15)
(0 -0 -4.24756e-14)
(0 -0 2.17445e-14)
(0 -0 6.07237e-14)
(0 -0 -2.45506e-14)
(0 -0 -3.6092e-14)
(0 -0 1.88156e-14)
(0 -0 2.45006e-12)
(0 -0 -4.83424e-12)
(0 -0 1.04718e-12)
(0 -0 -2.5748e-13)
(0 -0 -2.73685e-14)
(0 -0 -1.47832e-14)
(0 -0 2.53637e-14)
(0 -0 -1.32459e-14)
(0 -0 -9.94152e-15)
(0 -0 -9.70289e-14)
(0 -0 -3.79007e-14)
(0 -0 -1.0516e-14)
(0 -0 -9.14969e-15)
(0 -0 -2.21574e-14)
(0 -0 2.02233e-14)
(0 -0 3.99049e-14)
(0 -0 -3.38349e-14)
(0 -0 -1.27641e-14)
(0 -0 2.46855e-14)
(0 -0 -1.59432e-14)
(0 -0 -1.59775e-12)
(0 -0 1.45362e-12)
(0 -0 -4.63632e-13)
(0 -0 2.38128e-14)
(0 -0 -9.13667e-14)
(0 -0 -1.23957e-13)
(0 -0 -1.8459e-14)
(0 -0 1.25144e-14)
(0 -0 6.60509e-14)
(0 -0 9.89039e-14)
(0 -0 5.58352e-14)
(0 -0 1.03035e-14)
(0 -0 1.87131e-14)
(0 -0 6.14915e-14)
(0 -0 1.34285e-14)
(0 -0 7.76155e-15)
(0 -0 -8.10835e-15)
(0 -0 -7.03379e-14)
(0 -0 -6.0904e-15)
(0 -0 1.51643e-14)
(0 -0 -2.88623e-12)
(0 -0 3.06141e-12)
(0 -0 -6.89036e-13)
(0 -0 1.9219e-13)
(0 -0 -2.68006e-14)
(0 -0 -4.48456e-15)
(0 -0 2.08665e-14)
(0 -0 2.6664e-15)
(0 -0 1.58656e-15)
(0 -0 2.75054e-14)
(0 -0 2.13469e-14)
(0 -0 -1.96745e-15)
(0 -0 9.42575e-14)
(0 -0 6.34682e-14)
(0 -0 5.57603e-14)
(0 -0 1.61476e-15)
(0 -0 8.1732e-14)
(0 -0 1.81375e-14)
(0 -0 -1.18522e-14)
(0 -0 4.94057e-15)
(0 -0 5.7772e-12)
(0 -0 -6.35767e-12)
(0 -0 1.52068e-12)
(0 -0 -3.518e-13)
(0 -0 8.44028e-14)
(0 -0 -1.94196e-14)
(0 -0 -2.91928e-14)
(0 -0 3.83451e-14)
(0 -0 7.99905e-15)
(0 -0 -3.74221e-15)
(0 -0 -2.23999e-15)
(0 -0 -2.81528e-14)
(0 -0 -5.54279e-14)
(0 -0 -1.14604e-13)
(0 -0 -4.05603e-14)
(0 -0 -1.07236e-14)
(0 -0 7.27709e-15)
(0 -0 8.92844e-14)
(0 -0 1.04384e-15)
(0 -0 2.94042e-14)
(0 -0 -1.81501e-12)
(0 -0 3.08699e-12)
(0 -0 -6.70055e-13)
(0 -0 1.60468e-13)
(0 -0 -5.8144e-14)
(0 -0 5.00335e-14)
(0 -0 -2.97135e-14)
(0 -0 -3.40761e-14)
(0 -0 -3.37033e-15)
(0 -0 -5.95116e-14)
(0 -0 5.62079e-17)
(0 -0 -2.27754e-15)
(0 -0 -2.78657e-14)
(0 -0 4.37621e-14)
(0 -0 3.63391e-14)
(0 -0 -5.13358e-14)
(0 -0 -8.06726e-14)
(0 -0 3.11753e-15)
(0 -0 1.24084e-14)
(0 -0 8.0677e-15)
(0 -0 -2.5026e-12)
(0 -0 3.32881e-12)
(0 -0 -8.01406e-13)
(0 -0 2.47559e-13)
(0 -0 2.83679e-14)
(0 -0 5.14681e-14)
(0 -0 5.03947e-14)
(0 -0 -1.98415e-14)
(0 -0 -8.14391e-15)
(0 -0 1.1172e-15)
(0 -0 7.18214e-15)
(0 -0 7.02489e-14)
(0 -0 8.65305e-14)
(0 -0 2.14978e-14)
(0 -0 6.1963e-15)
(0 -0 1.9033e-14)
(0 -0 -8.99891e-14)
(0 -0 -8.75063e-14)
(0 -0 2.01904e-14)
(0 -0 4.57332e-15)
(0 -0 5.23915e-12)
(0 -0 -6.22612e-12)
(0 -0 1.52773e-12)
(0 -0 -2.26275e-13)
(0 -0 1.59846e-13)
(0 -0 6.3357e-14)
(0 -0 1.3051e-13)
(0 -0 1.04516e-13)
(0 -0 5.56284e-14)
(0 -0 6.40763e-14)
(0 -0 4.65534e-15)
(0 -0 -2.68384e-15)
(0 -0 -6.81405e-14)
(0 -0 -8.51505e-14)
(0 -0 -3.15283e-14)
(0 -0 2.72611e-14)
(0 -0 3.53013e-14)
(0 -0 -4.70062e-14)
(0 -0 -1.22398e-14)
(0 -0 1.89429e-14)
(0 -0 -6.27401e-12)
(0 -0 5.54502e-12)
(0 -0 -1.23343e-12)
(0 -0 3.04364e-13)
(0 -0 -4.46008e-14)
(0 -0 -4.29059e-14)
(0 -0 -1.58818e-13)
(0 -0 -3.26939e-14)
(0 -0 -8.87997e-14)
(0 -0 -2.68647e-14)
(0 -0 -2.04234e-14)
(0 -0 -2.3481e-14)
(0 -0 -4.48139e-14)
(0 -0 3.57468e-14)
(0 -0 -3.8831e-14)
(0 -0 -1.32877e-14)
(0 -0 -2.27241e-14)
(0 -0 2.37084e-14)
(0 -0 -3.23296e-14)
(0 -0 -6.33128e-15)
(0 -0 4.77731e-12)
(0 -0 -3.57397e-12)
(0 -0 7.95994e-13)
(0 -0 -2.00941e-13)
(0 -0 9.25721e-15)
(0 -0 -6.71212e-14)
(0 -0 -1.33668e-14)
(0 -0 -7.61197e-14)
(0 -0 1.8382e-14)
(0 -0 9.58902e-14)
(0 -0 9.88736e-14)
(0 -0 9.14159e-14)
(0 -0 1.22122e-13)
(0 -0 9.56716e-14)
(0 -0 3.89104e-14)
(0 -0 -2.79308e-14)
(0 -0 5.38586e-14)
(0 -0 4.0053e-14)
(0 -0 3.00174e-14)
(0 -0 2.27337e-14)
(0 -0 -1.96595e-13)
(0 -0 8.93382e-13)
(0 -0 -3.54173e-13)
(0 -0 -6.59022e-14)
(0 -0 -8.00306e-14)
(0 -0 1.63056e-14)
(0 -0 6.16746e-14)
(0 -0 5.54926e-14)
(0 -0 9.49423e-14)
(0 -0 4.82691e-14)
(0 -0 2.45579e-14)
(0 -0 1.07685e-14)
(0 -0 -5.40318e-15)
(0 -0 5.22312e-15)
(0 -0 7.42773e-15)
(0 -0 5.3129e-15)
(0 -0 3.6883e-15)
(0 -0 -1.57656e-15)
(0 -0 -7.71481e-15)
(0 -0 -2.77581e-14)
(0 -0 -4.39456e-12)
(0 -0 2.88482e-12)
(0 -0 -7.18651e-13)
(0 -0 7.85488e-14)
(0 -0 -1.25392e-13)
(0 -0 -2.33123e-14)
(0 -0 -6.82569e-14)
(0 -0 1.6363e-14)
(0 -0 1.1813e-15)
(0 -0 -2.12606e-14)
(0 -0 -1.05467e-14)
(0 -0 -8.13346e-14)
(0 -0 -8.28878e-14)
(0 -0 -4.62891e-14)
(0 -0 -1.82186e-14)
(0 -0 -2.48949e-14)
(0 -0 -2.63444e-15)
(0 -0 -6.98782e-15)
(0 -0 -2.65627e-14)
(0 -0 1.4582e-14)
(0 -0 6.45228e-12)
(0 -0 -7.25014e-12)
(0 -0 1.85187e-12)
(0 -0 -2.01507e-13)
(0 -0 2.58465e-13)
(0 -0 7.5962e-14)
(0 -0 1.10018e-13)
(0 -0 -2.12194e-14)
(0 -0 -5.50765e-14)
(0 -0 -5.83365e-14)
(0 -0 5.06229e-14)
(0 -0 9.55529e-14)
(0 -0 8.7784e-14)
(0 -0 6.10762e-14)
(0 -0 3.55582e-14)
(0 -0 3.25076e-14)
(0 -0 5.04361e-14)
(0 -0 -9.78565e-15)
(0 -0 -3.633e-15)
(0 -0 3.67597e-14)
(0 -0 -4.63331e-12)
(0 -0 6.96635e-12)
(0 -0 -1.60547e-12)
(0 -0 3.74252e-13)
(0 -0 -1.03345e-13)
(0 -0 2.47062e-14)
(0 -0 3.26745e-17)
(0 -0 6.85886e-15)
(0 -0 -4.09837e-15)
(0 -0 -7.59852e-14)
(0 -0 -8.17348e-14)
(0 -0 -9.24915e-14)
(0 -0 -5.22486e-14)
(0 -0 -5.61127e-14)
(0 -0 9.56155e-15)
(0 -0 -1.22521e-14)
(0 -0 -5.14548e-14)
(0 -0 1.74821e-15)
(0 -0 3.05618e-14)
(0 -0 -2.215e-14)
(0 -0 9.59512e-14)
(0 -0 -7.70899e-13)
(0 -0 7.46574e-14)
(0 -0 -2.1295e-13)
(0 -0 -1.19909e-13)
(0 -0 -1.17059e-13)
(0 -0 -1.4122e-13)
(0 -0 -1.03475e-13)
(0 -0 -8.02695e-14)
(0 -0 -6.99752e-14)
(0 -0 -1.5829e-13)
(0 -0 -6.73712e-14)
(0 -0 -5.57549e-14)
(0 -0 -5.20727e-14)
(0 -0 -1.72155e-14)
(0 -0 1.42907e-14)
(0 -0 -4.79787e-14)
(0 -0 2.61458e-15)
(0 -0 3.74896e-15)
(0 -0 7.13719e-15)
(0 -0 3.59161e-12)
(0 -0 -5.92562e-12)
(0 -0 1.42028e-12)
(0 -0 -2.91285e-13)
(0 -0 1.17213e-13)
(0 -0 5.09481e-14)
(0 -0 6.03118e-14)
(0 -0 1.09115e-14)
(0 -0 -1.2255e-14)
(0 -0 -8.27121e-15)
(0 -0 -1.52136e-14)
(0 -0 4.40592e-14)
(0 -0 6.18561e-14)
(0 -0 6.30817e-14)
(0 -0 2.59405e-14)
(0 -0 4.14904e-14)
(0 -0 7.60648e-14)
(0 -0 -3.60492e-14)
(0 -0 -1.3449e-14)
(0 -0 3.36515e-14)
(0 -0 -3.18463e-12)
(0 -0 4.33563e-12)
(0 -0 -1.09758e-12)
(0 -0 2.21985e-13)
(0 -0 -7.37381e-14)
(0 -0 -3.668e-14)
(0 -0 -8.22128e-14)
(0 -0 -6.10188e-14)
(0 -0 -5.64541e-14)
(0 -0 1.69867e-15)
(0 -0 -2.90733e-14)
(0 -0 -6.73872e-14)
(0 -0 -3.81974e-14)
(0 -0 -2.73472e-14)
(0 -0 -5.09889e-14)
(0 -0 -1.97225e-14)
(0 -0 1.07407e-14)
(0 -0 2.81062e-14)
(0 -0 -3.07909e-15)
(0 -0 -1.39983e-14)
(0 -0 -2.09086e-12)
(0 -0 3.21283e-12)
(0 -0 -5.22046e-13)
(0 -0 2.18207e-13)
(0 -0 3.54275e-14)
(0 -0 5.4583e-14)
(0 -0 6.28016e-14)
(0 -0 6.6693e-14)
(0 -0 8.07136e-14)
(0 -0 6.37826e-14)
(0 -0 9.2471e-14)
(0 -0 4.53562e-14)
(0 -0 5.45594e-15)
(0 -0 2.5709e-14)
(0 -0 6.92481e-14)
(0 -0 2.91437e-14)
(0 -0 -8.58455e-15)
(0 -0 4.05296e-15)
(0 -0 7.51557e-15)
(0 -0 3.82831e-14)
)
;

boundaryField
{
    movingWall
    {
        type            calculated;
        value           nonuniform List<vector> 
20
(
(0 -0 -4.03904e-12)
(0 -0 4.04909e-12)
(0 -0 -5.315e-14)
(0 -0 4.74859e-13)
(0 -0 3.36489e-13)
(0 -0 4.44462e-13)
(0 -0 4.69985e-13)
(0 -0 5.18285e-13)
(0 -0 4.87897e-13)
(0 -0 3.64844e-13)
(0 -0 3.22018e-13)
(0 -0 3.02009e-13)
(0 -0 2.44804e-13)
(0 -0 2.20649e-13)
(0 -0 1.48265e-13)
(0 -0 1.35265e-13)
(0 -0 8.02333e-14)
(0 -0 4.05296e-15)
(0 -0 7.51557e-15)
(0 -0 5.5587e-14)
)
;
    }
    fixedWalls
    {
        type            calculated;
        value           nonuniform List<vector> 
60
(
(0 -0 4.17567e-11)
(0 -0 2.66964e-12)
(0 -0 -2.85592e-11)
(0 -0 2.03197e-11)
(0 -0 -6.71221e-12)
(0 -0 -1.3553e-11)
(0 -0 2.79999e-11)
(0 -0 -1.31652e-11)
(0 -0 -1.44463e-11)
(0 -0 2.70329e-11)
(0 -0 -2.34212e-11)
(0 -0 1.54002e-11)
(0 -0 -4.37592e-12)
(0 -0 -1.29348e-11)
(0 -0 3.15742e-11)
(0 -0 -2.96952e-11)
(0 -0 3.24116e-12)
(0 -0 2.54909e-11)
(0 -0 -1.90727e-11)
(0 -0 -1.31178e-11)
(0 -0 -1.53828e-15)
(0 -0 1.0331e-14)
(0 -0 2.3603e-14)
(0 -0 -9.94242e-15)
(0 -0 3.09433e-14)
(0 -0 1.73287e-14)
(0 -0 2.65124e-14)
(0 -0 8.09268e-15)
(0 -0 -6.87571e-15)
(0 -0 3.47044e-14)
(0 -0 1.14124e-14)
(0 -0 2.31807e-14)
(0 -0 -2.15422e-14)
(0 -0 1.50291e-14)
(0 -0 4.26672e-14)
(0 -0 -1.57437e-14)
(0 -0 1.18447e-14)
(0 -0 4.02477e-14)
(0 -0 -1.35405e-15)
(0 -0 4.65279e-14)
(0 -0 8.0518e-12)
(0 -0 -1.08466e-11)
(0 -0 1.47826e-12)
(0 -0 -7.34892e-13)
(0 -0 -1.1992e-13)
(0 -0 -2.00325e-13)
(0 -0 -9.33377e-14)
(0 -0 -9.54792e-14)
(0 -0 -8.84009e-14)
(0 -0 -3.04604e-15)
(0 -0 -2.40992e-15)
(0 -0 -1.01527e-14)
(0 -0 7.61583e-14)
(0 -0 9.65531e-14)
(0 -0 1.79743e-14)
(0 -0 -2.03097e-15)
(0 -0 -1.07527e-14)
(0 -0 9.02777e-14)
(0 -0 -4.31869e-14)
(0 -0 -2.98831e-15)
)
;
    }
    frontAndBack
    {
        type            empty;
    }
}


// ************************************************************************* //
