/*--------------------------------*- C++ -*----------------------------------*\
| =========                 |                                                 |
| \\      /  F ield         | OpenFOAM: The Open Source CFD Toolbox           |
|  \\    /   O peration     | Version:  2506                                  |
|   \\  /    A nd           | Website:  www.openfoam.com                      |
|    \\/     M anipulation  |                                                 |
\*---------------------------------------------------------------------------*/
FoamFile
{
    version     2.0;
    format      ascii;
    arch        "LSB;label=32;scalar=64";
    class       volScalarField;
    location    "8.375";
    object      zeroGradient(p);
}
// * * * * * * * * * * * * * * * * * * * * * * * * * * * * * * * * * * * * * //

dimensions      [0 2 -2 0 0 0 0];

internalField   nonuniform List<scalar> 
400
(
0
2.81236e-15
3.23194e-16
4.46592e-16
8.2464e-17
3.52792e-17
1.52351e-16
3.10404e-16
4.91915e-16
5.09478e-16
4.14618e-16
0
0
0
0
0
0
0
0
0
1.81778e-15
0
1.22764e-17
2.12371e-17
3.51258e-16
1.45062e-16
3.67853e-17
4.48811e-16
5.73751e-16
4.95139e-16
3.27311e-16
0
0
0
0
0
0
0
0
0
1.4354e-15
8.51407e-16
1.59258e-17
2.16585e-16
3.38238e-16
1.43377e-16
2.1823e-16
3.70668e-16
4.61658e-16
4.28522e-16
1.34122e-16
0
0
0
0
0
0
0
0
0
6.70083e-16
1.05068e-15
2.85279e-16
1.60346e-16
4.06837e-16
2.61895e-16
3.39762e-16
2.78384e-16
2.99305e-16
1.50051e-16
0
0
0
0
0
0
0
0
0
0
5.77533e-16
0
2.872e-16
2.1246e-16
4.68181e-16
6.22907e-16
5.28089e-16
4.14294e-16
3.25292e-16
1.35199e-16
0
0
0
0
0
0
0
0
0
0
0
1.78778e-15
3.5615e-16
5.98594e-16
4.16386e-16
6.32566e-16
6.56786e-16
5.2345e-16
4.7598e-16
1.56781e-16
0
0
0
0
0
0
0
0
0
0
3.19811e-16
1.70745e-15
5.12267e-16
6.37266e-16
4.98288e-16
6.67109e-16
6.79493e-16
5.05268e-16
3.30239e-16
6.07805e-18
0
0
0
0
0
0
0
0
0
0
1.37182e-15
0
5.53283e-16
5.73272e-16
8.02996e-16
7.42496e-16
6.9333e-16
4.83138e-16
1.74918e-16
0
0
0
0
0
0
0
0
0
0
0
6.92926e-16
2.89704e-15
8.73653e-16
1.02019e-15
8.18827e-16
7.35797e-16
5.20039e-16
3.93851e-16
1.37326e-16
0
0
0
0
0
0
0
0
0
0
0
1.23399e-15
0
9.76411e-16
9.61397e-16
1.03251e-15
8.63736e-16
4.47366e-16
3.06393e-16
2.29772e-16
0
0
0
0
0
0
0
0
0
0
0
1.18669e-15
8.64396e-16
1.13364e-15
1.03384e-15
9.60835e-16
6.28461e-16
5.71756e-16
3.60484e-16
3.25509e-16
0
0
0
0
0
0
0
0
0
0
0
1.10765e-15
2.42265e-15
8.64417e-16
1.08361e-15
6.93807e-16
5.77992e-16
5.26209e-16
3.50494e-16
3.35167e-16
1.12929e-16
0
0
0
0
0
0
0
0
0
0
1.41008e-15
0
9.64095e-16
1.07349e-15
9.08271e-16
5.05351e-16
4.39785e-16
2.63874e-16
4.42722e-16
2.64831e-16
0
0
0
0
0
0
0
0
0
0
7.16336e-16
2.52194e-15
6.92613e-16
9.45585e-16
7.05077e-16
6.36116e-16
5.50931e-16
2.17589e-16
2.27705e-16
1.7413e-16
0
0
0
0
0
0
0
0
0
0
8.57189e-16
4.52766e-16
7.76589e-16
7.32489e-16
6.59528e-16
5.43245e-16
3.83915e-16
9.5718e-17
1.6977e-16
6.90889e-17
0
0
0
0
0
0
0
0
0
0
1.02803e-15
0
7.41713e-16
5.57248e-16
4.60948e-16
3.99646e-16
3.42492e-17
0
2.33504e-16
1.10922e-16
1.32676e-17
0
0
0
0
0
0
0
0
0
1.27613e-16
2.74648e-15
5.02741e-16
6.61073e-16
4.18705e-16
3.48444e-16
1.31861e-16
8.85886e-17
0
0
0
0
0
0
0
0
0
0
0
0
8.20333e-16
0
4.91362e-16
5.69637e-16
5.02868e-16
3.03178e-16
0
0
0
0
0
0
0
0
0
0
0
0
0
0
1.22499e-15
0
7.06733e-16
5.45442e-16
5.69206e-16
3.58992e-16
0
0
0
0
0
0
0
0
0
0
0
0
0
0
0
2.09226e-15
6.67405e-16
8.3821e-16
4.84409e-16
3.18272e-16
0
0
0
0
0
0
0
0
0
0
0
0
0
0
)
;

boundaryField
{
    movingWall
    {
        type            zeroGradient;
    }
    fixedWalls
    {
        type            zeroGradient;
    }
    frontAndBack
    {
        type            empty;
    }
}


// ************************************************************************* //
