/*--------------------------------*- C++ -*----------------------------------*\
| =========                 |                                                 |
| \\      /  F ield         | OpenFOAM: The Open Source CFD Toolbox           |
|  \\    /   O peration     | Version:  2506                                  |
|   \\  /    A nd           | Website:  www.openfoam.com                      |
|    \\/     M anipulation  |                                                 |
\*---------------------------------------------------------------------------*/
FoamFile
{
    version     2.0;
    format      ascii;
    arch        "LSB;label=32;scalar=64";
    class       volVectorField;
    location    "5";
    object      ddtU;
}
// * * * * * * * * * * * * * * * * * * * * * * * * * * * * * * * * * * * * * //

dimensions      [0 1 -2 0 0 0 0];

internalField   nonuniform List<vector> 
400
(
(1.11022e-11 -8.87009e-09 0)
(-8.4821e-12 2.10567e-09 0)
(3.19744e-12 -5.00547e-10 0)
(-1.66533e-12 1.18733e-10 0)
(3.10862e-13 -2.82853e-11 0)
(-2.22045e-13 6.68573e-12 0)
(4.44089e-14 -1.60944e-12 0)
(-2.22045e-14 3.6935e-13 0)
(0 -8.73535e-14 0)
(-6.66134e-14 2.7328e-14 0)
(0 4.34865e-15 0)
(-2.22045e-14 -6.56173e-15 0)
(0 -1.14786e-14 0)
(2.22045e-14 -2.13936e-15 0)
(0 5.12327e-15 0)
(4.44089e-14 -2.10523e-15 0)
(-2.22045e-14 -3.34311e-15 0)
(0 5.53519e-16 0)
(0 -3.19686e-15 0)
(-2.22045e-14 5.10252e-15 0)
(-1.80522e-11 8.87451e-09 0)
(4.39648e-12 -2.10909e-09 0)
(-1.39888e-12 4.99894e-10 0)
(3.55271e-13 -1.18951e-10 0)
(-1.55431e-13 2.80854e-11 0)
(0 -6.74658e-12 0)
(0 1.56428e-12 0)
(-4.44089e-14 -3.80459e-13 0)
(-4.44089e-14 7.61341e-14 0)
(2.22045e-14 -3.47389e-14 0)
(2.22045e-14 1.37775e-14 0)
(4.44089e-14 -7.58035e-15 0)
(0 -2.60878e-14 0)
(0 -1.81661e-14 0)
(2.22045e-14 4.24255e-15 0)
(-2.22045e-14 1.11597e-14 0)
(-2.22045e-14 -3.17698e-15 0)
(0 -2.96093e-15 0)
(0 1.12597e-14 0)
(-4.44089e-14 6.06036e-15 0)
(5.47562e-11 -8.86217e-09 0)
(-1.1191e-11 2.10462e-09 0)
(4.35207e-12 -4.99673e-10 0)
(-9.54792e-13 1.1847e-10 0)
(3.9968e-13 -2.82378e-11 0)
(-6.66134e-14 6.64166e-12 0)
(2.22045e-14 -1.6147e-12 0)
(4.44089e-14 3.73261e-13 0)
(-2.22045e-14 -1.11642e-13 0)
(-2.22045e-14 -1.04693e-14 0)
(0 -2.30179e-14 0)
(2.22045e-14 -5.10292e-15 0)
(0 -2.68494e-14 0)
(4.44089e-14 -2.59757e-14 0)
(-2.22045e-14 -9.94723e-16 0)
(0 2.16895e-14 0)
(2.22045e-14 1.00874e-14 0)
(-2.22045e-14 6.46892e-15 0)
(0 1.74958e-14 0)
(-2.22045e-14 -2.27079e-15 0)
(-6.3638e-11 8.83743e-09 0)
(1.33671e-11 -2.09708e-09 0)
(-4.77396e-12 4.97582e-10 0)
(1.15463e-12 -1.18138e-10 0)
(-2.66454e-13 2.79662e-11 0)
(8.88178e-14 -6.68321e-12 0)
(2.22045e-14 1.54727e-12 0)
(4.44089e-14 -3.89161e-13 0)
(2.22045e-14 7.91709e-14 0)
(2.22045e-14 -3.12187e-14 0)
(-4.44089e-14 -9.27206e-15 0)
(4.44089e-14 -2.43553e-14 0)
(0 -1.73886e-14 0)
(-6.66134e-14 -1.19702e-14 0)
(2.22045e-14 2.09718e-15 0)
(-4.44089e-14 7.71349e-15 0)
(-2.22045e-14 7.27547e-15 0)
(0 1.52168e-14 0)
(0 1.17543e-14 0)
(0 -7.23182e-15 0)
(6.47926e-11 -8.80632e-09 0)
(-1.3145e-11 2.08939e-09 0)
(4.88498e-12 -4.95751e-10 0)
(-1.08802e-12 1.17598e-10 0)
(2.66454e-13 -2.79417e-11 0)
(-1.11022e-13 6.59423e-12 0)
(4.44089e-14 -1.58094e-12 0)
(-2.22045e-14 3.56658e-13 0)
(-4.44089e-14 -1.17817e-13 0)
(-2.22045e-14 -3.05974e-15 0)
(4.44089e-14 -1.10973e-14 0)
(2.22045e-14 -1.69183e-14 0)
(-2.22045e-14 -9.2402e-15 0)
(0 6.03851e-15 0)
(-4.44089e-14 4.73041e-15 0)
(-2.22045e-14 2.04187e-15 0)
(6.66134e-14 6.4501e-15 0)
(-2.22045e-14 8.98746e-15 0)
(-2.22045e-14 1.84647e-14 0)
(-2.22045e-14 -1.04254e-14 0)
(-6.33493e-11 8.77983e-09 0)
(1.31894e-11 -2.08294e-09 0)
(-4.88498e-12 4.94126e-10 0)
(1.06581e-12 -1.17252e-10 0)
(-2.66454e-13 2.77846e-11 0)
(8.88178e-14 -6.61345e-12 0)
(0 1.54542e-12 0)
(8.88178e-14 -3.97185e-13 0)
(4.44089e-14 7.5624e-14 0)
(0 -3.29113e-14 0)
(-4.44089e-14 -5.64036e-15 0)
(-4.44089e-14 4.13316e-16 0)
(-8.88178e-14 1.14406e-14 0)
(-4.44089e-14 1.88635e-14 0)
(-4.44089e-14 2.85383e-15 0)
(-4.44089e-14 1.34646e-14 0)
(-4.44089e-14 1.54671e-14 0)
(0 4.11724e-15 0)
(-4.44089e-14 4.31891e-15 0)
(0 -2.48225e-14 0)
(5.92859e-11 -8.75346e-09 0)
(-1.19682e-11 2.07638e-09 0)
(4.44089e-12 -4.92608e-10 0)
(-9.76996e-13 1.16815e-10 0)
(2.66454e-13 -2.77571e-11 0)
(-4.44089e-14 6.54676e-12 0)
(4.44089e-14 -1.5824e-12 0)
(-4.44089e-14 3.54672e-13 0)
(-4.44089e-14 -7.38027e-14 0)
(0 3.30577e-14 0)
(0 -2.73881e-14 0)
(4.44089e-14 -1.90332e-15 0)
(4.44089e-14 1.42974e-14 0)
(0 1.75561e-14 0)
(0 1.76845e-14 0)
(4.44089e-14 1.64212e-14 0)
(4.44089e-14 3.50642e-15 0)
(4.44089e-14 2.22148e-15 0)
(0 -7.20715e-15 0)
(2.22045e-14 -2.66252e-14 0)
(-5.44231e-11 8.72846e-09 0)
(1.12355e-11 -2.07038e-09 0)
(-4.13003e-12 4.91126e-10 0)
(9.76996e-13 -1.16506e-10 0)
(-2.44249e-13 2.76045e-11 0)
(1.33227e-13 -6.59106e-12 0)
(-4.44089e-14 1.54688e-12 0)
(0 -3.73696e-13 0)
(4.44089e-14 7.03363e-14 0)
(0 -4.46398e-14 0)
(4.44089e-14 -3.33516e-14 0)
(0 -1.83185e-15 0)
(0 2.89982e-14 0)
(-4.44089e-14 2.01019e-14 0)
(-4.44089e-14 3.84436e-14 0)
(0 2.71649e-15 0)
(4.44089e-14 -5.70375e-15 0)
(-4.44089e-14 -7.12972e-15 0)
(4.44089e-14 -1.81526e-15 0)
(0 -1.48492e-14 0)
(4.83613e-11 -8.70351e-09 0)
(-9.74776e-12 2.06435e-09 0)
(3.5083e-12 -4.89757e-10 0)
(-8.21565e-13 1.16132e-10 0)
(2.66454e-13 -2.75871e-11 0)
(0 6.49857e-12 0)
(4.44089e-14 -1.57458e-12 0)
(4.44089e-14 3.50741e-13 0)
(4.44089e-14 -1.03313e-13 0)
(0 1.02648e-15 0)
(0 6.01637e-16 0)
(-4.44089e-14 2.30745e-14 0)
(-4.44089e-14 2.18966e-14 0)
(0 1.18794e-14 0)
(0 1.57062e-14 0)
(0 1.54422e-14 0)
(-4.44089e-14 1.08547e-14 0)
(0 -2.04008e-15 0)
(0 -2.91261e-15 0)
(2.22045e-14 -2.08607e-14 0)
(-4.24549e-11 8.68071e-09 0)
(8.88178e-12 -2.05904e-09 0)
(-3.17524e-12 4.88399e-10 0)
(7.54952e-13 -1.15912e-10 0)
(-1.77636e-13 2.74447e-11 0)
(0 -6.53709e-12 0)
(0 1.52507e-12 0)
(0 -3.81588e-13 0)
(0 8.20458e-14 0)
(0 -1.31579e-14 0)
(-4.44089e-14 3.75713e-14 0)
(4.44089e-14 3.93068e-15 0)
(4.44089e-14 -1.04817e-14 0)
(0 7.98345e-15 0)
(4.44089e-14 -1.80078e-15 0)
(-4.44089e-14 2.22522e-14 0)
(2.22045e-14 4.86391e-15 0)
(0 1.90564e-14 0)
(2.22045e-14 4.76758e-15 0)
(0 -1.7741e-14 0)
(3.74367e-11 -8.65888e-09 0)
(-7.37188e-12 2.05385e-09 0)
(2.75335e-12 -4.87243e-10 0)
(-5.32907e-13 1.15563e-10 0)
(1.33227e-13 -2.74018e-11 0)
(-4.44089e-14 6.50757e-12 0)
(-4.44089e-14 -1.55051e-12 0)
(0 3.6821e-13 0)
(-4.44089e-14 -9.48834e-14 0)
(-4.44089e-14 1.34051e-14 0)
(0 -5.67763e-15 0)
(0 -1.45248e-14 0)
(-4.44089e-14 -1.1841e-14 0)
(0 -4.8687e-15 0)
(4.44089e-14 -3.52599e-16 0)
(0 7.39317e-15 0)
(4.44089e-14 8.93112e-15 0)
(-4.44089e-14 1.23364e-14 0)
(0 9.88606e-15 0)
(2.22045e-14 -3.4485e-16 0)
(-3.18856e-11 8.63911e-09 0)
(6.61693e-12 -2.04928e-09 0)
(-2.30926e-12 4.86143e-10 0)
(5.77316e-13 -1.15292e-10 0)
(-1.11022e-13 2.73684e-11 0)
(8.88178e-14 -6.47811e-12 0)
(0 1.53415e-12 0)
(0 -3.65539e-13 0)
(0 7.65304e-14 0)
(-4.44089e-14 -5.15052e-14 0)
(4.44089e-14 -1.38535e-14 0)
(0 -6.05651e-16 0)
(0 2.71374e-15 0)
(0 -1.03744e-14 0)
(0 -3.20696e-15 0)
(-4.44089e-14 2.165e-15 0)
(0 1.93741e-14 0)
(0 2.26347e-15 0)
(-2.22045e-14 1.13329e-14 0)
(-2.22045e-14 -1.66749e-15 0)
(2.83773e-11 -8.62122e-09 0)
(-5.57332e-12 2.04504e-09 0)
(1.9984e-12 -4.85143e-10 0)
(-4.21885e-13 1.15106e-10 0)
(1.77636e-13 -2.72895e-11 0)
(-4.44089e-14 6.48435e-12 0)
(0 -1.5354e-12 0)
(4.44089e-14 3.62602e-13 0)
(4.44089e-14 -8.53089e-14 0)
(0 7.05242e-15 0)
(-4.44089e-14 -1.53694e-14 0)
(-4.44089e-14 1.30757e-14 0)
(-4.44089e-14 1.14585e-14 0)
(0 1.93897e-15 0)
(-4.44089e-14 -3.12177e-15 0)
(0 -1.45876e-14 0)
(0 -9.23586e-15 0)
(4.44089e-14 2.29725e-15 0)
(-4.44089e-14 1.76723e-14 0)
(0 -5.71187e-15 0)
(-2.38254e-11 8.60461e-09 0)
(5.01821e-12 -2.04118e-09 0)
(-1.66533e-12 4.84256e-10 0)
(4.44089e-13 -1.14832e-10 0)
(-6.66134e-14 2.72961e-11 0)
(4.44089e-14 -6.44258e-12 0)
(4.44089e-14 1.5394e-12 0)
(0 -3.64177e-13 0)
(-4.44089e-14 1.03877e-13 0)
(0 -7.22503e-15 0)
(-8.88178e-14 -1.43176e-14 0)
(0 -9.46858e-15 0)
(0 7.09508e-15 0)
(4.44089e-14 1.4055e-14 0)
(2.22045e-14 4.33536e-15 0)
(0 -9.7301e-15 0)
(-2.22045e-14 -2.07531e-14 0)
(0 3.6431e-15 0)
(0 2.18303e-14 0)
(0 -4.06742e-15 0)
(2.20712e-11 -8.59027e-09 0)
(-4.35207e-12 2.03782e-09 0)
(1.59872e-12 -4.83407e-10 0)
(-3.10862e-13 1.1471e-10 0)
(1.33227e-13 -2.71692e-11 0)
(4.44089e-14 6.47795e-12 0)
(4.44089e-14 -1.51163e-12 0)
(4.44089e-14 3.78797e-13 0)
(4.44089e-14 -7.22662e-14 0)
(4.44089e-14 3.32566e-14 0)
(4.44089e-14 -1.6889e-15 0)
(0 8.25824e-15 0)
(-4.44089e-14 1.84629e-14 0)
(0 1.64246e-14 0)
(0 1.56387e-14 0)
(0 5.10071e-16 0)
(0 -1.07263e-14 0)
(-4.44089e-14 3.28528e-15 0)
(0 4.77174e-15 0)
(0 -7.99234e-15 0)
(-1.81188e-11 8.5762e-09 0)
(3.90799e-12 -2.0345e-09 0)
(-1.19904e-12 4.82694e-10 0)
(3.55271e-13 -1.14456e-10 0)
(-4.44089e-14 2.72087e-11 0)
(4.44089e-14 -6.40772e-12 0)
(0 1.57551e-12 0)
(0 -3.23008e-13 0)
(0 9.90075e-14 0)
(0 -1.67241e-14 0)
(4.44089e-14 2.64536e-14 0)
(0 2.10877e-14 0)
(4.44089e-14 1.26195e-14 0)
(0 8.34742e-15 0)
(0 7.78036e-15 0)
(6.66134e-14 8.16332e-15 0)
(0 7.9077e-15 0)
(-4.44089e-14 -1.03558e-14 0)
(0 -1.65727e-14 0)
(0 -9.87378e-15 0)
(1.85185e-11 -8.5646e-09 0)
(-3.57492e-12 2.03179e-09 0)
(1.28786e-12 -4.81921e-10 0)
(-2.88658e-13 1.14413e-10 0)
(4.44089e-14 -2.70455e-11 0)
(0 6.50018e-12 0)
(-4.44089e-14 -1.46766e-12 0)
(0 3.99169e-13 0)
(4.44089e-14 -6.36535e-14 0)
(0 3.25884e-14 0)
(0 1.31162e-14 0)
(-2.22045e-14 8.34613e-15 0)
(-4.44089e-14 -9.87479e-15 0)
(2.22045e-14 -4.96524e-15 0)
(2.22045e-14 -6.17903e-15 0)
(-6.66134e-14 5.62195e-15 0)
(2.22045e-14 4.50297e-15 0)
(2.22045e-14 -1.12532e-14 0)
(-2.22045e-14 -9.4437e-15 0)
(-2.22045e-14 -8.22562e-15 0)
(-1.29896e-11 8.55114e-09 0)
(2.79776e-12 -2.02863e-09 0)
(-8.65974e-13 4.81497e-10 0)
(1.77636e-13 -1.14092e-10 0)
(-1.11022e-13 2.71752e-11 0)
(0 -6.37445e-12 0)
(-2.22045e-14 1.56513e-12 0)
(-2.22045e-14 -3.40029e-13 0)
(4.44089e-14 1.11763e-13 0)
(2.22045e-14 9.42097e-15 0)
(-4.44089e-14 3.61536e-14 0)
(-6.66134e-14 8.14822e-15 0)
(-6.66134e-14 -1.82902e-14 0)
(-4.44089e-14 -9.87361e-15 0)
(-2.22045e-14 -3.78295e-15 0)
(-2.22045e-14 -5.98479e-15 0)
(-6.66134e-14 -2.8559e-15 0)
(-2.22045e-14 -8.24746e-15 0)
(-2.22045e-14 -5.73345e-15 0)
(0 -1.58174e-14 0)
(1.81188e-11 -8.54233e-09 0)
(-3.33067e-12 2.02694e-09 0)
(1.28786e-12 -4.80222e-10 0)
(-3.77476e-13 1.14098e-10 0)
(4.44089e-14 -2.69154e-11 0)
(-8.88178e-14 6.43979e-12 0)
(-6.66134e-14 -1.48224e-12 0)
(-6.66134e-14 3.7765e-13 0)
(-2.22045e-14 -8.10184e-14 0)
(4.44089e-14 2.42142e-14 0)
(2.22045e-14 5.8531e-15 0)
(4.44089e-14 1.55436e-14 0)
(0 4.1767e-15 0)
(0 -5.78452e-15 0)
(0 -1.8871e-14 0)
(2.22045e-14 4.10724e-15 0)
(2.22045e-14 1.62196e-14 0)
(0 -3.3467e-15 0)
(2.22045e-14 -6.47349e-15 0)
(0 -1.58619e-14 0)
(4.04121e-12 8.53051e-09 0)
(-6.59472e-12 -2.02299e-09 0)
(2.70894e-12 4.80405e-10 0)
(-1.44329e-12 -1.1388e-10 0)
(3.55271e-13 2.71013e-11 0)
(-1.9984e-13 -6.39989e-12 0)
(4.44089e-14 1.54539e-12 0)
(2.22045e-14 -3.48825e-13 0)
(4.44089e-14 7.91577e-14 0)
(0 -3.30963e-14 0)
(0 6.87916e-16 0)
(0 1.04853e-14 0)
(0 1.5665e-14 0)
(2.22045e-14 -1.01593e-14 0)
(4.44089e-14 -2.11328e-14 0)
(-4.44089e-14 4.50152e-15 0)
(0 1.47241e-14 0)
(0 3.85306e-15 0)
(0 -1.97278e-15 0)
(0 -3.19896e-15 0)
)
;

boundaryField
{
    movingWall
    {
        type            calculated;
        value           uniform (0 0 0);
    }
    fixedWalls
    {
        type            calculated;
        value           uniform (0 0 0);
    }
    frontAndBack
    {
        type            empty;
    }
}


// ************************************************************************* //
