/*--------------------------------*- C++ -*----------------------------------*\
| =========                 |                                                 |
| \\      /  F ield         | OpenFOAM: The Open Source CFD Toolbox           |
|  \\    /   O peration     | Version:  2506                                  |
|   \\  /    A nd           | Website:  www.openfoam.com                      |
|    \\/     M anipulation  |                                                 |
\*---------------------------------------------------------------------------*/
FoamFile
{
    version     2.0;
    format      ascii;
    arch        "LSB;label=32;scalar=64";
    class       volScalarField;
    location    "5";
    object      divPhi;
}
// * * * * * * * * * * * * * * * * * * * * * * * * * * * * * * * * * * * * * //

dimensions      [0 0 -1 0 0 0 0];

internalField   nonuniform List<scalar> 
400
(
0
-1.42834e-14
-2.53619e-16
7.9867e-15
-6.28256e-15
1.54952e-14
-8.06115e-16
7.17341e-15
1.19805e-15
-1.31599e-15
-1.02188e-14
1.65405e-15
3.04533e-15
3.26458e-16
-2.04176e-14
2.5738e-14
-2.33218e-14
2.70657e-15
9.13293e-15
0
0
-3.18895e-16
1.32551e-14
7.2101e-15
-3.56789e-15
-1.76033e-14
1.214e-14
-3.89487e-15
-2.42346e-16
-1.13696e-14
-7.35382e-15
3.52845e-15
1.04224e-14
-7.52731e-15
-6.75038e-15
3.14402e-14
-3.79539e-15
6.9155e-15
1.34827e-14
0
0
5.7095e-15
-1.21406e-14
5.63985e-15
3.03271e-16
-2.00023e-15
2.10888e-14
-1.79677e-14
-7.06112e-15
-4.91037e-15
-1.39221e-14
6.21266e-16
2.17893e-14
7.69299e-15
-1.25355e-14
2.01868e-14
1.59266e-15
-4.1793e-15
8.94978e-15
2.71051e-14
0
1.29343e-14
-1.77259e-14
5.52309e-15
1.27449e-15
1.05164e-14
-9.33784e-15
1.08878e-14
-3.71224e-15
-3.50167e-14
3.24478e-14
-1.14947e-14
-4.13419e-15
3.5725e-14
-1.90398e-14
-2.78201e-14
-1.297e-14
1.27948e-14
1.81463e-14
-2.71051e-14
-5.42101e-14
3.10561e-14
6.70742e-15
-1.78842e-14
5.5579e-15
6.50068e-15
-6.80475e-15
-9.99797e-15
7.38818e-15
3.24594e-15
-1.66686e-14
-6.12484e-15
-3.33739e-15
1.99415e-14
2.58075e-14
-2.10892e-14
-1.80759e-14
2.12307e-14
-6.10204e-15
0
0
1.91507e-14
-1.7455e-14
3.13053e-14
1.37575e-14
1.25921e-14
1.2385e-14
-1.83253e-14
-4.10725e-15
2.14752e-14
1.40541e-14
-6.47493e-15
3.81268e-15
-6.38572e-15
1.61004e-14
2.69511e-15
1.70799e-14
-3.15299e-16
-1.29966e-14
0
2.71051e-14
-1.58234e-15
-8.15801e-15
2.21757e-14
-1.54572e-14
1.0853e-14
-8.26155e-15
3.71916e-14
-4.38601e-15
-2.68641e-14
-1.9908e-14
1.34003e-14
4.8494e-15
2.92298e-15
-3.17582e-14
1.47114e-14
-1.75175e-14
-1.05456e-14
-2.48426e-14
0
0
-3.05685e-14
5.48153e-15
-1.6816e-14
7.35015e-15
8.83227e-15
-6.48984e-15
3.64072e-14
-1.33401e-14
-2.40247e-14
1.63332e-14
-2.59267e-15
1.93694e-14
-4.22598e-15
-8.14922e-15
-1.35935e-14
1.44974e-14
-7.75189e-15
-8.75016e-15
0
-2.71051e-14
-5.34051e-15
1.89005e-14
1.99574e-14
-4.00336e-15
1.43237e-14
-8.26673e-15
8.9116e-15
-2.10937e-14
5.7948e-15
-2.34415e-14
8.49342e-15
-1.58267e-14
1.00882e-15
-3.71841e-14
4.22852e-14
-2.74938e-14
-6.0181e-16
1.9031e-14
0
2.71051e-14
-9.27041e-15
7.06608e-15
-1.25843e-14
-1.91771e-14
-6.70286e-15
-1.12066e-14
-1.39026e-14
3.19228e-14
-1.73009e-14
1.0039e-14
-2.13262e-15
2.08717e-14
1.69526e-14
-1.69518e-14
-1.59956e-14
2.20169e-14
-2.09935e-14
-1.09544e-15
0
0
-4.20793e-14
2.60747e-14
-2.34775e-14
3.33893e-14
-9.99597e-15
3.52954e-15
-2.15035e-14
1.02577e-15
4.10796e-15
3.31476e-14
-3.02303e-15
-8.83242e-15
-2.34988e-14
7.10269e-15
2.44993e-14
-1.18766e-14
1.67881e-14
-1.80606e-14
0
0
1.51561e-14
-6.80835e-15
1.52993e-15
-4.49044e-15
-1.69075e-14
-9.66174e-15
1.35116e-14
1.8486e-14
-1.96361e-14
1.64446e-14
-3.97148e-15
-6.22343e-16
1.45402e-14
1.51216e-14
-9.13414e-15
-2.22688e-14
-6.63371e-15
1.80052e-14
2.71051e-14
0
-2.85093e-14
1.01858e-14
4.01607e-16
-3.88846e-15
1.67009e-15
-4.15942e-15
3.97199e-15
1.72709e-14
-1.05989e-14
-1.28803e-14
1.00889e-14
9.18302e-15
-1.19813e-14
-1.71629e-15
-1.20471e-14
-2.9546e-15
-1.1023e-14
-6.67391e-15
-2.71051e-14
-2.71051e-14
-9.77019e-15
2.83284e-14
7.75269e-16
1.56617e-14
5.83378e-15
-2.07046e-14
7.75295e-15
-1.47276e-14
-2.25054e-15
-9.09466e-15
1.33339e-14
7.3188e-15
-7.8635e-15
6.65685e-15
4.78745e-15
-4.67114e-15
-1.52581e-14
-2.80417e-16
2.71051e-14
0
2.04504e-14
-9.42674e-15
-7.06683e-15
4.00933e-16
1.43997e-14
2.31412e-14
8.4262e-15
-3.32585e-15
-1.42246e-14
-1.27055e-14
6.88171e-15
1.49835e-14
-3.27024e-15
-5.01917e-15
2.48075e-14
-5.93294e-15
4.78252e-15
-8.70622e-15
0
2.71051e-14
-2.34938e-14
-2.49616e-15
8.95714e-17
-1.4421e-14
-1.9438e-15
-1.12036e-14
3.22942e-14
-1.10746e-14
1.20865e-14
-3.96988e-14
1.71282e-14
-2.91127e-14
-3.00997e-15
9.86575e-15
9.14364e-15
-2.2058e-14
1.58763e-14
-2.1785e-14
-2.71051e-14
0
-2.67664e-14
1.08063e-14
8.27951e-15
-4.38478e-15
7.44142e-15
-1.08959e-14
-6.29844e-15
4.32238e-15
1.44769e-14
-2.5993e-14
-1.05696e-14
-3.1171e-15
-1.31272e-14
1.45823e-14
1.12775e-14
-7.48853e-15
-3.23257e-14
2.24075e-14
0
0
5.84196e-16
-8.1434e-15
5.2728e-15
-3.42068e-15
1.30792e-14
7.1673e-15
-4.05602e-15
4.76194e-16
-1.02004e-14
1.96533e-16
4.42992e-16
-3.09351e-14
-4.31711e-15
-6.97659e-15
1.12296e-14
-1.74124e-14
2.3309e-14
-9.22495e-15
0
0
-2.27223e-15
-2.65267e-14
2.1262e-14
-6.12481e-15
1.18963e-14
2.00005e-14
-2.127e-14
5.42509e-15
-9.07062e-16
4.17884e-15
-2.84868e-14
2.01374e-14
-1.22228e-15
-9.49143e-15
2.02423e-14
1.97156e-14
-3.99284e-16
-2.59587e-15
0
0
0
0
-2.71051e-14
0
2.71051e-14
-2.71051e-14
0
2.71051e-14
-2.71051e-14
0
0
-2.71051e-14
0
0
0
-2.71051e-14
0
0
0
)
;

boundaryField
{
    movingWall
    {
        type            extrapolatedCalculated;
        value           nonuniform List<scalar> 
20
(
0
0
0
-2.71051e-14
0
2.71051e-14
-2.71051e-14
0
2.71051e-14
-2.71051e-14
0
0
-2.71051e-14
0
0
0
-2.71051e-14
0
0
0
)
;
    }
    fixedWalls
    {
        type            extrapolatedCalculated;
        value           nonuniform List<scalar> 
60
(
0
0
0
0
-5.42101e-14
0
2.71051e-14
0
-2.71051e-14
2.71051e-14
0
0
0
-2.71051e-14
0
2.71051e-14
0
0
0
0
0
0
2.71051e-14
-2.71051e-14
0
0
0
0
0
0
0
2.71051e-14
-2.71051e-14
2.71051e-14
0
-2.71051e-14
0
0
0
0
0
-1.42834e-14
-2.53619e-16
7.9867e-15
-6.28256e-15
1.54952e-14
-8.06115e-16
7.17341e-15
1.19805e-15
-1.31599e-15
-1.02188e-14
1.65405e-15
3.04533e-15
3.26458e-16
-2.04176e-14
2.5738e-14
-2.33218e-14
2.70657e-15
9.13293e-15
0
)
;
    }
    frontAndBack
    {
        type            empty;
    }
}


// ************************************************************************* //
