/*--------------------------------*- C++ -*----------------------------------*\
| =========                 |                                                 |
| \\      /  F ield         | OpenFOAM: The Open Source CFD Toolbox           |
|  \\    /   O peration     | Version:  2506                                  |
|   \\  /    A nd           | Website:  www.openfoam.com                      |
|    \\/     M anipulation  |                                                 |
\*---------------------------------------------------------------------------*/
FoamFile
{
    version     2.0;
    format      ascii;
    arch        "LSB;label=32;scalar=64";
    class       volScalarField;
    location    "5";
    object      divU;
}
// * * * * * * * * * * * * * * * * * * * * * * * * * * * * * * * * * * * * * //

dimensions      [0 0 -1 0 0 0 0];

internalField   nonuniform List<scalar> 
400
(
-2.91705e-10
1.82243e-10
-1.66789e-10
8.88229e-11
-3.85909e-11
1.16729e-11
-4.54802e-12
1.17291e-12
-4.33652e-13
6.99507e-14
-5.7997e-14
2.32969e-14
1.48654e-15
1.11315e-15
1.02477e-15
-3.48334e-15
-2.05418e-14
7.32634e-15
1.87138e-14
0
4.8331e-10
-2.04847e-10
4.51746e-11
-5.89307e-12
4.55298e-12
4.02247e-13
7.29303e-14
1.99626e-14
-8.471e-14
-7.36763e-15
1.57989e-14
2.58112e-14
-5.01345e-14
1.1106e-14
6.29714e-15
1.60617e-14
1.6158e-14
2.6396e-15
-5.25124e-14
2.71051e-14
-8.8788e-10
1.06684e-09
-2.30048e-10
9.10269e-11
-2.04177e-11
7.08742e-12
-1.71656e-12
6.67925e-13
-1.75821e-13
1.13317e-14
4.05614e-15
-5.14676e-15
4.71359e-14
9.73566e-15
-3.19633e-14
-2.71076e-14
6.82102e-15
-7.2469e-15
1.03445e-14
0
5.61969e-10
-1.35581e-09
2.52555e-10
-1.09569e-10
2.28956e-11
-6.75067e-12
2.07443e-12
-4.25979e-13
1.91709e-13
-6.19186e-14
4.51983e-14
-2.39453e-14
-5.62272e-15
3.77088e-14
-1.04555e-14
3.03564e-14
-2.46193e-14
1.01595e-14
2.4563e-14
2.71051e-14
-2.11934e-10
1.56466e-09
-2.99105e-10
1.25627e-10
-2.82725e-11
8.08425e-12
-2.4665e-12
5.71614e-13
-1.39326e-13
5.44603e-14
1.41772e-14
2.88371e-14
-1.00304e-14
1.51164e-14
-2.49031e-14
3.71311e-14
-6.69634e-15
-7.86049e-15
-2.14806e-14
0
-1.34441e-11
-1.53369e-09
2.88974e-10
-1.22805e-10
2.74615e-11
-7.93368e-12
2.43929e-12
-5.23769e-13
2.28018e-13
-1.09701e-13
-1.87687e-14
-4.5193e-14
2.46088e-14
-1.16215e-14
6.35359e-15
8.51901e-15
-1.68755e-14
-8.59927e-16
4.78177e-14
0
9.76866e-11
1.50945e-09
-2.87411e-10
1.2072e-10
-2.7332e-11
7.78194e-12
-2.38455e-12
5.57139e-13
-1.78947e-13
6.96538e-14
1.69913e-14
2.11132e-14
4.19464e-14
-5.63857e-14
7.56621e-14
-5.34497e-14
3.61157e-14
-2.88032e-15
-2.25449e-14
-2.71051e-14
-2.01526e-10
-1.39196e-09
2.62435e-10
-1.11058e-10
2.50734e-11
-7.24802e-12
2.12888e-12
-4.96227e-13
1.91458e-13
-9.24936e-14
1.7764e-15
-3.8749e-15
-6.70441e-14
7.43045e-15
-1.21034e-14
4.11547e-14
3.5598e-14
-9.24262e-15
-7.76836e-15
-2.71051e-14
2.57417e-10
1.30525e-09
-2.47297e-10
1.03932e-10
-2.35473e-11
6.78367e-12
-2.12976e-12
5.14254e-13
-2.0832e-13
2.50338e-14
7.4981e-14
-4.93729e-14
-2.11891e-14
1.62957e-14
-3.68222e-14
-9.74781e-15
-1.84676e-14
7.449e-14
-7.53459e-15
0
-3.38271e-10
-1.16859e-09
2.18975e-10
-9.28075e-11
2.09641e-11
-5.96854e-12
1.83036e-12
-4.64319e-13
1.62503e-13
-1.00771e-13
2.78192e-14
2.27685e-15
-2.46473e-15
1.01582e-14
1.34882e-14
-4.51016e-14
1.97355e-14
-1.24734e-14
-4.97459e-15
-2.71051e-14
3.76706e-10
1.07594e-09
-2.02564e-10
8.52245e-11
-1.93532e-11
5.4407e-12
-1.66334e-12
4.56963e-13
-1.24344e-13
-4.06162e-15
-2.77412e-14
3.59423e-14
-3.17713e-14
2.11973e-15
6.46877e-14
-4.91182e-15
3.99029e-14
-7.0927e-14
4.18569e-14
0
-4.38072e-10
-9.47916e-10
1.76008e-10
-7.48044e-11
1.68745e-11
-4.79066e-12
1.39938e-12
-3.73736e-13
1.47854e-13
-7.12084e-14
5.73668e-14
4.15955e-14
-2.74174e-15
1.41678e-16
1.23259e-14
-2.76869e-14
2.9868e-14
-1.38191e-14
-1.90206e-14
0
4.54687e-10
8.77241e-10
-1.64304e-10
6.92041e-11
-1.57245e-11
4.38605e-12
-1.31866e-12
3.41523e-13
-1.05172e-13
-6.25446e-15
9.99208e-15
-4.47426e-14
9.29338e-15
1.28921e-14
4.85998e-14
-3.8432e-14
6.46582e-15
-1.18535e-15
5.55013e-14
0
-5.03883e-10
-7.69247e-10
1.41076e-10
-6.03327e-11
1.35266e-11
-3.87964e-12
1.17311e-12
-2.80697e-13
9.53116e-14
-1.59578e-14
-1.17667e-14
1.03445e-14
7.01845e-14
3.22696e-14
1.76525e-14
-2.10133e-14
-1.32549e-14
1.17056e-14
-7.78522e-15
-2.71051e-14
5.02311e-10
7.38038e-10
-1.38033e-10
5.80184e-11
-1.32513e-11
3.73522e-12
-1.16477e-12
3.12627e-13
-1.24139e-13
8.58894e-14
1.79221e-14
-2.28588e-14
-2.1664e-14
-7.43389e-15
-3.16341e-14
-1.12709e-14
-2.31264e-14
3.01559e-14
2.24868e-14
0
-5.58174e-10
-6.47674e-10
1.16305e-10
-5.05244e-11
1.10934e-11
-3.13257e-12
9.30593e-13
-1.95857e-13
5.60508e-14
3.2642e-15
-3.30369e-14
5.64606e-15
3.50783e-14
-1.0719e-14
-2.35227e-14
1.31735e-14
-5.93211e-14
-1.05442e-14
3.65086e-14
-2.71051e-14
5.32099e-10
6.83152e-10
-1.30841e-10
5.34059e-11
-1.27235e-11
3.64563e-12
-1.02713e-12
3.07022e-13
-1.76191e-14
4.0195e-14
-1.21532e-14
-3.61849e-14
1.99822e-14
2.22715e-14
-8.69742e-15
2.21533e-14
3.17587e-15
-2.81717e-14
2.56952e-14
0
-5.90348e-10
-5.77721e-10
8.53348e-11
-4.03724e-11
8.25241e-12
-1.47475e-12
7.21965e-13
-5.0505e-15
7.67267e-14
8.02022e-15
-5.61807e-14
-2.49898e-14
8.61371e-15
5.95454e-15
-7.32292e-15
-2.63425e-14
-2.48185e-14
2.57208e-14
1.44432e-14
0
3.483e-10
7.16692e-10
-1.29372e-10
6.53861e-11
-1.24131e-11
4.8861e-12
-1.36071e-12
3.4513e-13
-1.3546e-13
2.32829e-14
-3.51703e-14
2.662e-14
-1.06374e-14
-7.48748e-15
-7.27072e-16
2.87502e-14
3.04311e-14
-5.2289e-15
-3.95306e-15
-2.71051e-14
-3.27185e-10
-3.23905e-11
-1.27773e-10
7.0446e-11
-3.29326e-11
1.04897e-11
-3.95734e-12
1.0842e-12
-4.06576e-13
8.13152e-14
-5.42101e-14
0
-2.71051e-14
0
0
0
-2.71051e-14
0
0
0
)
;

boundaryField
{
    movingWall
    {
        type            extrapolatedCalculated;
        value           nonuniform List<scalar> 
20
(
-3.27185e-10
-3.23905e-11
-1.27773e-10
7.0446e-11
-3.29326e-11
1.04897e-11
-3.95734e-12
1.0842e-12
-4.06576e-13
8.13152e-14
-5.42101e-14
0
-2.71051e-14
0
0
0
-2.71051e-14
0
0
0
)
;
    }
    fixedWalls
    {
        type            extrapolatedCalculated;
        value           nonuniform List<scalar> 
60
(
-2.91705e-10
4.8331e-10
-8.8788e-10
5.61969e-10
-2.11934e-10
-1.34441e-11
9.76866e-11
-2.01526e-10
2.57417e-10
-3.38271e-10
3.76706e-10
-4.38072e-10
4.54687e-10
-5.03883e-10
5.02311e-10
-5.58174e-10
5.32099e-10
-5.90348e-10
3.483e-10
-3.27185e-10
0
2.71051e-14
0
2.71051e-14
0
0
-2.71051e-14
-2.71051e-14
0
-2.71051e-14
0
0
0
-2.71051e-14
0
-2.71051e-14
0
0
-2.71051e-14
0
-2.91705e-10
1.82243e-10
-1.66789e-10
8.88229e-11
-3.85909e-11
1.16729e-11
-4.54802e-12
1.17291e-12
-4.33652e-13
6.99507e-14
-5.7997e-14
2.32969e-14
1.48654e-15
1.11315e-15
1.02477e-15
-3.48334e-15
-2.05418e-14
7.32634e-15
1.87138e-14
0
)
;
    }
    frontAndBack
    {
        type            empty;
    }
}


// ************************************************************************* //
