/*--------------------------------*- C++ -*----------------------------------*\
| =========                 |                                                 |
| \\      /  F ield         | OpenFOAM: The Open Source CFD Toolbox           |
|  \\    /   O peration     | Version:  2506                                  |
|   \\  /    A nd           | Website:  www.openfoam.com                      |
|    \\/     M anipulation  |                                                 |
\*---------------------------------------------------------------------------*/
FoamFile
{
    version     2.0;
    format      ascii;
    arch        "LSB;label=32;scalar=64";
    class       volScalarField;
    location    "5";
    object      dpdt2;
}
// * * * * * * * * * * * * * * * * * * * * * * * * * * * * * * * * * * * * * //

dimensions      [0 4 -6 0 0 0 0];

internalField   nonuniform List<scalar> 
400
(
2.36188e-30
2.59154e-24
1.88297e-26
2.41328e-24
2.65846e-24
3.93958e-24
4.74909e-24
5.68753e-24
5.86305e-24
6.02886e-24
6.70778e-24
6.96885e-24
7.08444e-24
7.55235e-24
8.28663e-24
8.52824e-24
8.54831e-24
8.55948e-24
8.88001e-24
8.78176e-24
4.37606e-25
1.19062e-25
1.84709e-24
2.62459e-24
3.58575e-24
4.26423e-24
4.86237e-24
5.65413e-24
5.92472e-24
6.26202e-24
6.82935e-24
7.22669e-24
7.28458e-24
7.56586e-24
8.2237e-24
8.45287e-24
8.42053e-24
8.62609e-24
9.16621e-24
8.68404e-24
1.07734e-24
2.25079e-23
2.69272e-24
4.0128e-24
4.04047e-24
4.96113e-24
5.28457e-24
5.84411e-24
6.44809e-24
6.65178e-24
6.80187e-24
7.26931e-24
7.66558e-24
7.88783e-24
8.43446e-24
8.64394e-24
8.63689e-24
8.90747e-24
9.01429e-24
8.7535e-24
1.58998e-24
3.9496e-24
3.72365e-24
3.77628e-24
4.95388e-24
5.14568e-24
5.91246e-24
6.5038e-24
6.79675e-24
6.99617e-24
7.10706e-24
7.47574e-24
8.04664e-24
8.54197e-24
8.7321e-24
8.85042e-24
8.91083e-24
9.03959e-24
9.14183e-24
8.88723e-24
3.80666e-24
3.18237e-23
3.83352e-24
5.73027e-24
5.31099e-24
5.95459e-24
6.49115e-24
6.8764e-24
7.22588e-24
7.34553e-24
7.4927e-24
8.17856e-24
8.60208e-24
8.9273e-24
9.18393e-24
9.05827e-24
9.1681e-24
9.2727e-24
9.30367e-24
9.09481e-24
3.59831e-24
2.453e-24
5.51294e-24
4.9646e-24
6.55846e-24
6.47486e-24
7.03122e-24
7.42541e-24
7.99321e-24
7.92658e-24
7.99983e-24
8.61054e-24
9.07195e-24
9.28143e-24
9.424e-24
9.45905e-24
9.46052e-24
9.67613e-24
9.38515e-24
9.42769e-24
6.80374e-24
3.47114e-23
5.70877e-24
7.43692e-24
6.83114e-24
7.18118e-24
7.60493e-24
8.06717e-24
8.35028e-24
8.42178e-24
8.49377e-24
9.055e-24
9.31937e-24
9.66645e-24
1.00023e-23
9.67642e-24
9.70604e-24
9.85726e-24
9.83474e-24
1.01545e-23
5.31601e-24
2.76949e-25
7.47152e-24
6.8138e-24
8.08006e-24
7.88047e-24
8.3061e-24
8.43556e-24
8.74089e-24
9.14973e-24
9.81764e-24
9.69912e-24
9.70911e-24
9.91029e-24
1.01151e-23
1.01518e-23
1.03582e-23
1.01978e-23
1.05413e-23
1.05256e-23
9.71364e-24
3.12999e-23
7.88485e-24
9.31839e-24
8.88684e-24
9.24927e-24
8.87857e-24
9.09891e-24
9.51481e-24
9.70736e-24
1.03338e-23
1.00324e-23
9.69369e-24
1.0413e-23
1.04272e-23
1.07226e-23
1.08569e-23
1.0996e-23
1.1033e-23
1.08873e-23
6.68951e-24
4.85086e-25
9.73856e-24
9.18654e-24
1.03592e-23
1.0236e-23
9.88385e-24
1.00724e-23
1.00578e-23
1.03696e-23
1.06487e-23
1.04984e-23
1.02326e-23
1.06793e-23
1.08487e-23
1.07972e-23
1.10605e-23
1.14606e-23
1.14446e-23
1.14743e-23
1.1896e-23
2.77121e-23
1.04373e-23
1.12919e-23
1.07866e-23
1.11315e-23
1.08604e-23
1.10062e-23
1.10959e-23
1.10724e-23
1.09242e-23
1.12793e-23
1.09711e-23
1.09483e-23
1.12244e-23
1.10713e-23
1.15892e-23
1.1498e-23
1.19787e-23
1.17309e-23
8.52701e-24
2.76636e-24
1.18133e-23
1.11998e-23
1.17199e-23
1.18688e-23
1.20079e-23
1.16193e-23
1.1854e-23
1.16473e-23
1.14403e-23
1.17513e-23
1.17585e-23
1.15689e-23
1.1747e-23
1.16775e-23
1.17495e-23
1.16887e-23
1.18511e-23
1.17423e-23
1.40402e-23
2.51985e-23
1.25119e-23
1.27914e-23
1.26389e-23
1.26326e-23
1.25824e-23
1.21945e-23
1.23782e-23
1.25871e-23
1.23754e-23
1.26321e-23
1.23601e-23
1.20291e-23
1.21241e-23
1.22146e-23
1.21797e-23
1.19116e-23
1.18461e-23
1.20206e-23
1.02789e-23
5.80721e-24
1.37586e-23
1.29481e-23
1.37832e-23
1.35066e-23
1.3465e-23
1.30424e-23
1.2675e-23
1.27445e-23
1.28755e-23
1.29437e-23
1.28114e-23
1.2565e-23
1.24462e-23
1.28061e-23
1.26396e-23
1.22753e-23
1.19812e-23
1.20977e-23
1.55949e-23
2.44257e-23
1.41949e-23
1.43853e-23
1.43826e-23
1.44865e-23
1.40915e-23
1.38484e-23
1.33752e-23
1.30447e-23
1.34213e-23
1.3429e-23
1.27241e-23
1.26611e-23
1.27624e-23
1.29698e-23
1.30152e-23
1.23046e-23
1.1996e-23
1.22927e-23
1.22977e-23
8.90445e-24
1.52342e-23
1.47152e-23
1.50673e-23
1.48031e-23
1.47178e-23
1.42216e-23
1.38213e-23
1.37261e-23
1.36541e-23
1.32319e-23
1.27467e-23
1.30037e-23
1.29833e-23
1.31668e-23
1.29325e-23
1.24617e-23
1.23528e-23
1.24051e-23
1.71644e-23
2.46591e-23
1.6026e-23
1.5769e-23
1.50254e-23
1.48751e-23
1.46683e-23
1.46283e-23
1.42277e-23
1.4178e-23
1.39997e-23
1.33366e-23
1.2929e-23
1.29604e-23
1.31497e-23
1.31087e-23
1.28917e-23
1.28193e-23
1.26074e-23
1.25707e-23
1.30491e-23
1.23475e-23
1.62938e-23
1.57577e-23
1.51681e-23
1.48081e-23
1.48402e-23
1.48736e-23
1.45736e-23
1.44914e-23
1.39426e-23
1.34233e-23
1.31619e-23
1.32369e-23
1.31024e-23
1.3172e-23
1.32806e-23
1.31769e-23
1.28669e-23
1.27007e-23
1.73913e-23
2.87755e-23
1.51316e-23
1.56781e-23
1.45824e-23
1.50347e-23
1.48536e-23
1.49517e-23
1.46214e-23
1.43331e-23
1.36817e-23
1.34704e-23
1.35779e-23
1.32775e-23
1.32701e-23
1.34071e-23
1.31604e-23
1.34561e-23
1.32775e-23
1.30563e-23
1.44646e-23
2.21149e-23
9.23598e-24
1.52503e-23
1.3548e-23
1.49279e-23
1.45517e-23
1.47098e-23
1.46274e-23
1.45512e-23
1.38704e-23
1.33913e-23
1.32368e-23
1.35389e-23
1.37046e-23
1.31047e-23
1.30005e-23
1.35286e-23
1.33331e-23
1.31943e-23
)
;

boundaryField
{
    movingWall
    {
        type            calculated;
        value           nonuniform List<scalar> 
20
(
1.44646e-23
2.21149e-23
9.23598e-24
1.52503e-23
1.3548e-23
1.49279e-23
1.45517e-23
1.47098e-23
1.46274e-23
1.45512e-23
1.38704e-23
1.33913e-23
1.32368e-23
1.35389e-23
1.37046e-23
1.31047e-23
1.30005e-23
1.35286e-23
1.33331e-23
1.31943e-23
)
;
    }
    fixedWalls
    {
        type            calculated;
        value           nonuniform List<scalar> 
60
(
2.36188e-30
4.37606e-25
1.07734e-24
1.58998e-24
3.80666e-24
3.59831e-24
6.80374e-24
5.31601e-24
9.71364e-24
6.68951e-24
1.1896e-23
8.52701e-24
1.40402e-23
1.02789e-23
1.55949e-23
1.22977e-23
1.71644e-23
1.30491e-23
1.73913e-23
1.44646e-23
8.78176e-24
8.68404e-24
8.7535e-24
8.88723e-24
9.09481e-24
9.42769e-24
1.01545e-23
1.05256e-23
1.08873e-23
1.14743e-23
1.17309e-23
1.17423e-23
1.20206e-23
1.20977e-23
1.22927e-23
1.24051e-23
1.25707e-23
1.27007e-23
1.30563e-23
1.31943e-23
2.36188e-30
2.59154e-24
1.88297e-26
2.41328e-24
2.65846e-24
3.93958e-24
4.74909e-24
5.68753e-24
5.86305e-24
6.02886e-24
6.70778e-24
6.96885e-24
7.08444e-24
7.55235e-24
8.28663e-24
8.52824e-24
8.54831e-24
8.55948e-24
8.88001e-24
8.78176e-24
)
;
    }
    frontAndBack
    {
        type            empty;
    }
}


// ************************************************************************* //
