/*--------------------------------*- C++ -*----------------------------------*\
| =========                 |                                                 |
| \\      /  F ield         | OpenFOAM: The Open Source CFD Toolbox           |
|  \\    /   O peration     | Version:  2506                                  |
|   \\  /    A nd           | Website:  www.openfoam.com                      |
|    \\/     M anipulation  |                                                 |
\*---------------------------------------------------------------------------*/
FoamFile
{
    version     2.0;
    format      ascii;
    arch        "LSB;label=32;scalar=64";
    class       volScalarField;
    location    "5";
    object      dUdt2;
}
// * * * * * * * * * * * * * * * * * * * * * * * * * * * * * * * * * * * * * //

dimensions      [0 2 -4 0 0 0 0];

internalField   nonuniform List<scalar> 
400
(
7.86787e-17
4.43392e-18
2.50558e-19
1.41004e-20
8.00155e-22
4.47483e-23
2.59227e-24
1.36912e-25
7.63064e-27
5.18416e-27
1.89107e-29
5.36094e-28
1.31759e-28
4.97615e-28
2.62479e-29
1.97658e-27
5.04214e-28
3.06383e-31
1.02199e-29
5.19074e-28
7.87573e-17
4.44826e-18
2.49896e-19
1.41494e-20
7.88814e-22
4.55164e-23
2.44696e-24
1.46721e-25
7.76855e-27
1.69983e-27
6.82858e-28
2.02961e-27
6.80575e-28
3.30007e-28
5.11037e-28
6.17578e-28
5.03131e-28
8.7671e-30
1.2678e-28
2.00888e-27
7.8541e-17
4.42955e-18
2.49692e-19
1.40361e-20
7.97536e-22
4.41161e-23
2.60774e-24
1.41296e-25
1.2957e-26
6.02644e-28
5.29826e-28
5.19078e-28
7.20893e-28
2.64689e-27
4.94028e-28
4.70436e-28
5.94795e-28
5.34885e-28
3.06101e-28
4.98195e-28
7.81042e-17
4.39794e-18
2.47611e-19
1.39579e-20
7.82177e-22
4.46732e-23
2.39454e-24
1.53418e-25
6.76107e-27
1.46764e-27
2.05812e-27
2.56533e-27
3.02362e-28
4.58063e-27
4.97436e-28
2.03165e-27
5.4597e-28
2.31551e-28
1.38163e-28
5.22993e-29
7.75554e-17
4.36573e-18
2.45792e-19
1.38305e-20
7.8081e-22
4.34962e-23
2.50134e-24
1.27698e-25
1.58531e-26
5.024e-28
2.0953e-27
7.79266e-28
5.78419e-28
3.64636e-29
1.99453e-27
4.97207e-28
4.47895e-27
5.73813e-28
8.33982e-28
6.01728e-28
7.70895e-17
4.33883e-18
2.44184e-19
1.37492e-20
7.72055e-22
4.37456e-23
2.38832e-24
1.65644e-25
7.69115e-27
1.08315e-27
2.00397e-27
1.97232e-27
8.0195e-27
2.32798e-27
1.9803e-27
2.15345e-27
2.21138e-27
1.69517e-29
1.99081e-27
6.16156e-28
7.66265e-17
4.31148e-18
2.42682e-19
1.36466e-20
7.70526e-22
4.2862e-23
2.50597e-24
1.27765e-25
7.41899e-27
1.09281e-27
7.50109e-28
1.97577e-27
2.17657e-27
3.08215e-28
3.12742e-28
2.24181e-27
1.98445e-27
1.97709e-27
5.1943e-29
1.20194e-27
7.61891e-17
4.28661e-18
2.41222e-19
1.35745e-20
7.62071e-22
4.34598e-23
2.39482e-24
1.39649e-25
6.91935e-27
1.99271e-27
3.08448e-27
3.35569e-30
8.40895e-28
2.37624e-27
3.45006e-27
7.3793e-30
2.00468e-27
2.02299e-27
1.97545e-27
2.20498e-28
7.57534e-17
4.26163e-18
2.39874e-19
1.34873e-20
7.61117e-22
4.22314e-23
2.48126e-24
1.24992e-25
1.26457e-26
1.05366e-30
3.61967e-31
2.50459e-27
2.45161e-27
1.4112e-28
2.46685e-28
2.38461e-28
2.08998e-27
4.16194e-30
8.4833e-30
9.28206e-28
7.53565e-17
4.23972e-18
2.38544e-19
1.34362e-20
7.53244e-22
4.27336e-23
2.32584e-24
1.45609e-25
6.73152e-27
1.73129e-28
3.38375e-27
1.9876e-27
2.08202e-27
6.37354e-29
1.9754e-27
2.46731e-27
5.16696e-28
3.63147e-28
5.15768e-28
3.14742e-28
7.49776e-17
4.21836e-18
2.37414e-19
1.3355e-20
7.50878e-22
4.23505e-23
2.40605e-24
1.35579e-25
1.0975e-26
2.15185e-27
3.22355e-29
2.10969e-28
2.11236e-27
2.37043e-29
1.97228e-27
5.4659e-29
2.05192e-27
2.12434e-27
9.77342e-29
4.93157e-28
7.46352e-17
4.19958e-18
2.3634e-19
1.32925e-20
7.49039e-22
4.19738e-23
2.35361e-24
1.33618e-25
5.85691e-27
4.62494e-27
2.16407e-27
3.66813e-31
7.36436e-30
1.07628e-28
1.02846e-29
1.97684e-27
3.75356e-28
5.12328e-30
6.21472e-28
4.95819e-28
7.43262e-17
4.1822e-18
2.35368e-19
1.32496e-20
7.44749e-22
4.20487e-23
2.35746e-24
1.33453e-25
9.24977e-27
4.97366e-29
2.20837e-27
2.14313e-27
2.10345e-27
3.7596e-30
1.9819e-27
2.12797e-28
8.53011e-29
1.97743e-27
2.28446e-27
3.26255e-29
7.40399e-17
4.16644e-18
2.34507e-19
1.31865e-20
7.45081e-22
4.15088e-23
2.37173e-24
1.32625e-25
1.27627e-26
5.22011e-29
8.0936e-27
8.96541e-29
5.03402e-29
2.16969e-27
5.11833e-28
9.46748e-29
9.23728e-28
1.32722e-29
4.76561e-28
1.65439e-29
7.37931e-17
4.15271e-18
2.33685e-19
1.31585e-20
7.38183e-22
4.19658e-23
2.28701e-24
1.45459e-25
7.19455e-27
3.07816e-27
1.975e-27
6.81985e-29
2.31303e-27
2.69768e-28
2.4457e-28
2.60172e-31
1.15054e-28
1.98295e-27
2.27695e-29
6.38774e-29
7.35516e-17
4.1392e-18
2.32995e-19
1.31002e-20
7.40317e-22
4.10608e-23
2.48223e-24
1.04334e-25
9.80249e-27
2.79695e-28
2.67194e-27
4.4469e-28
2.1314e-27
6.96794e-29
6.0534e-29
4.50398e-27
6.25316e-29
2.0794e-27
2.74653e-28
9.74915e-29
7.33527e-17
4.12818e-18
2.32249e-19
1.30904e-20
7.31462e-22
4.22523e-23
2.15598e-24
1.59336e-25
6.02391e-27
1.062e-27
1.72034e-28
5.62696e-28
2.06966e-27
5.17692e-28
5.31218e-28
4.46895e-27
5.13315e-28
6.19673e-28
5.82222e-28
5.60699e-28
7.31221e-17
4.11536e-18
2.3184e-19
1.3017e-20
7.38503e-22
4.06336e-23
2.45014e-24
1.16113e-25
1.44631e-26
5.81793e-28
3.27923e-27
4.50374e-27
4.77187e-27
2.06964e-27
5.07349e-28
5.28856e-28
4.4455e-27
5.61059e-28
5.25911e-28
2.50189e-28
7.29717e-17
4.1085e-18
2.30615e-19
1.30184e-20
7.24443e-22
4.14788e-23
2.20146e-24
1.47057e-25
7.05702e-27
2.55848e-27
5.27297e-28
2.21375e-27
1.74448e-29
3.34607e-29
3.56113e-28
5.09908e-28
7.56114e-28
1.12004e-29
5.34944e-28
2.51601e-28
7.27696e-17
4.09252e-18
2.30796e-19
1.29707e-20
7.34607e-22
4.09986e-23
2.39019e-24
1.22172e-25
8.2381e-27
1.09537e-27
4.73229e-31
1.09941e-28
2.45392e-28
5.96249e-28
2.41875e-27
1.99242e-27
2.168e-28
1.48461e-29
3.89186e-30
1.02333e-29
)
;

boundaryField
{
    movingWall
    {
        type            calculated;
        value           uniform 0;
    }
    fixedWalls
    {
        type            calculated;
        value           uniform 0;
    }
    frontAndBack
    {
        type            empty;
    }
}


// ************************************************************************* //
