/*--------------------------------*- C++ -*----------------------------------*\
| =========                 |                                                 |
| \\      /  F ield         | OpenFOAM: The Open Source CFD Toolbox           |
|  \\    /   O peration     | Version:  2506                                  |
|   \\  /    A nd           | Website:  www.openfoam.com                      |
|    \\/     M anipulation  |                                                 |
\*---------------------------------------------------------------------------*/
FoamFile
{
    version     2.0;
    format      ascii;
    arch        "LSB;label=32;scalar=64";
    class       volScalarField;
    location    "5";
    object      enstrophyField;
}
// * * * * * * * * * * * * * * * * * * * * * * * * * * * * * * * * * * * * * //

dimensions      [0 0 -2 0 0 0 0];

internalField   nonuniform List<scalar> 
400
(
2.52552e-14
3.87106e-14
2.18169e-15
1.23832e-16
6.93528e-18
4.01775e-19
2.14935e-20
1.42036e-21
5.15917e-23
8.53116e-24
1.62199e-26
3.05097e-25
8.09476e-26
3.62302e-26
1.89849e-26
1.07178e-26
2.25286e-27
6.9794e-28
6.62736e-30
9.3545e-29
2.50249e-14
3.87768e-14
2.18909e-15
1.23574e-16
6.97616e-18
3.93796e-19
2.22153e-20
1.25608e-21
7.02966e-23
4.14723e-24
2.12937e-25
1.32855e-26
3.48417e-28
2.70855e-30
3.81757e-28
2.49448e-27
5.71496e-30
5.05718e-28
1.11473e-28
2.18302e-28
2.4936e-14
3.86841e-14
2.17971e-15
1.22812e-16
6.9197e-18
3.89892e-19
2.19754e-20
1.23554e-21
6.93331e-23
4.17004e-24
1.82682e-25
2.62067e-26
1.18776e-28
5.39461e-27
2.571e-28
5.66722e-28
6.89926e-28
4.76504e-29
4.17756e-28
2.18841e-28
2.5124e-14
3.87033e-14
2.17995e-15
1.22775e-16
6.91495e-18
3.89508e-19
2.19404e-20
1.23668e-21
6.90856e-23
3.83546e-24
2.65977e-25
3.38534e-27
5.53669e-27
2.72165e-30
8.51702e-28
1.98918e-27
3.08256e-27
8.37405e-28
5.97284e-28
3.67996e-28
2.51136e-14
3.85498e-14
2.17071e-15
1.22223e-16
6.88155e-18
3.87505e-19
2.18176e-20
1.2346e-21
6.76377e-23
4.09536e-24
1.82828e-25
1.28337e-26
9.04776e-30
3.12415e-30
2.32211e-29
1.40432e-29
8.45107e-30
1.03142e-27
7.9188e-28
8.67549e-28
2.50652e-14
3.83661e-14
2.16006e-15
1.21606e-16
6.84616e-18
3.85338e-19
2.17055e-20
1.22098e-21
6.8612e-23
3.84061e-24
1.81933e-25
1.80904e-26
1.01608e-27
7.65462e-29
7.60899e-28
6.47508e-30
5.18817e-28
6.22767e-30
8.4179e-28
7.18655e-28
2.49429e-14
3.81388e-14
2.1471e-15
1.20868e-16
6.8038e-18
3.83084e-19
2.15441e-20
1.21507e-21
6.80659e-23
3.69956e-24
2.05195e-25
2.02096e-26
3.09299e-27
2.25206e-28
1.2205e-29
2.72622e-27
1.12517e-26
1.11658e-27
2.78935e-28
1.39473e-27
2.48152e-14
3.7918e-14
2.13458e-15
1.2016e-16
6.76383e-18
3.80749e-19
2.1418e-20
1.20889e-21
6.86951e-23
3.71645e-24
3.18065e-25
1.04669e-26
2.12687e-28
1.0676e-28
2.00927e-30
1.10549e-27
1.32188e-28
7.41487e-28
9.49075e-29
2.60427e-29
2.46709e-14
3.76887e-14
2.12163e-15
1.1943e-16
6.72222e-18
3.78517e-19
2.12618e-20
1.2082e-21
6.61442e-23
4.1729e-24
2.06243e-25
1.26876e-26
1.21945e-27
4.33169e-27
1.1859e-26
8.32437e-28
5.8269e-28
5.10785e-28
1.35147e-27
5.39859e-28
2.45299e-14
3.74695e-14
2.1093e-15
1.18728e-16
6.68402e-18
3.76119e-19
2.1202e-20
1.19079e-21
6.70982e-23
3.74978e-24
1.68857e-25
1.04316e-26
2.78867e-27
4.79756e-28
1.90791e-27
2.45483e-28
2.54612e-27
2.14677e-27
3.13301e-29
4.97777e-29
2.43876e-14
3.7254e-14
2.09716e-15
1.18047e-16
6.64511e-18
3.74028e-19
2.10742e-20
1.18225e-21
6.8174e-23
3.60053e-24
2.34051e-25
2.03676e-26
4.01939e-28
2.65074e-29
5.65074e-28
8.44933e-31
9.82145e-30
8.32935e-28
8.55153e-29
1.04731e-28
2.42471e-14
3.70462e-14
2.08546e-15
1.17391e-16
6.60806e-18
3.71982e-19
2.09346e-20
1.17801e-21
6.69166e-23
3.64167e-24
2.43871e-25
1.0309e-26
3.17222e-29
1.22661e-27
2.29645e-27
3.95517e-28
2.73372e-27
6.91013e-29
1.39179e-28
3.20826e-29
2.41134e-14
3.68488e-14
2.07437e-15
1.16766e-16
6.57323e-18
3.69949e-19
2.08236e-20
1.17298e-21
6.5408e-23
3.96594e-24
2.28261e-25
9.74783e-29
5.20574e-27
2.70651e-29
8.56545e-28
5.60029e-29
2.25589e-28
6.89416e-28
2.79963e-29
4.88716e-28
2.39764e-14
3.66533e-14
2.06339e-15
1.16152e-16
6.53803e-18
3.68098e-19
2.07198e-20
1.16613e-21
6.59768e-23
3.53906e-24
2.95191e-25
8.79666e-29
9.85769e-28
6.00361e-28
1.47411e-28
2.56725e-28
7.29786e-28
3.71247e-27
3.09827e-28
7.41234e-31
2.38537e-14
3.64732e-14
2.05329e-15
1.15583e-16
6.50648e-18
3.66304e-19
2.06194e-20
1.15928e-21
6.52834e-23
3.53549e-24
1.8297e-25
1.09747e-26
1.1232e-28
2.01198e-27
4.2483e-27
3.84984e-28
1.39664e-28
1.503e-27
2.73929e-27
5.75016e-28
2.37142e-14
3.62835e-14
2.04263e-15
1.14986e-16
6.47276e-18
3.64379e-19
2.04999e-20
1.15458e-21
6.44699e-23
3.69887e-24
1.6713e-25
2.35417e-26
5.47115e-30
1.07183e-27
8.73782e-28
1.07396e-27
2.85933e-30
2.01129e-27
4.97535e-28
2.11098e-29
2.36109e-14
3.6118e-14
2.03336e-15
1.14466e-16
6.44387e-18
3.6269e-19
2.04251e-20
1.14452e-21
6.48849e-23
3.57364e-24
2.37329e-25
1.5484e-26
5.96408e-28
7.7643e-28
9.12665e-28
5.56233e-29
5.4067e-28
5.70152e-30
3.92422e-28
3.19482e-28
2.34483e-14
3.59185e-14
2.02217e-15
1.13837e-16
6.40839e-18
3.60789e-19
2.03057e-20
1.14484e-21
6.3608e-23
3.80941e-24
1.65657e-25
1.1843e-26
3.57021e-27
7.1562e-28
2.42979e-27
4.04161e-28
1.79285e-30
1.40456e-27
4.9043e-29
8.84149e-29
2.35229e-14
3.5872e-14
2.02264e-15
1.14037e-16
6.42947e-18
3.62537e-19
2.04327e-20
1.15629e-21
6.43692e-23
3.8773e-24
1.62276e-25
1.95087e-26
2.46763e-29
3.55466e-28
2.14091e-28
6.26175e-28
3.6051e-28
2.28324e-27
4.41538e-28
6.1761e-28
2.34751e-14
3.56992e-14
2.00966e-15
1.13827e-16
6.38126e-18
3.67185e-19
1.99021e-20
1.26456e-21
5.17893e-23
6.63915e-24
1.31898e-27
1.8092e-25
3.30304e-26
1.98411e-26
6.17609e-27
2.97103e-27
2.78963e-27
1.14002e-27
1.68738e-31
3.95425e-31
)
;

boundaryField
{
    movingWall
    {
        type            calculated;
        value           nonuniform List<scalar> 
20
(
2.3083e-14
3.57632e-14
2.01616e-15
1.15505e-16
6.45604e-18
3.82428e-19
1.99137e-20
1.45262e-21
3.99841e-23
1.21303e-23
2.41093e-25
6.86736e-25
1.84648e-25
1.23985e-25
4.9167e-26
1.21838e-26
2.10556e-27
3.39138e-27
1.68738e-31
3.95425e-31
)
;
    }
    fixedWalls
    {
        type            calculated;
        value           nonuniform List<scalar> 
60
(
6.94635e-13
6.95416e-13
6.9484e-13
6.95246e-13
6.92548e-13
6.8928e-13
6.85212e-13
6.81252e-13
6.77137e-13
6.73202e-13
6.69329e-13
6.65593e-13
6.62043e-13
6.58527e-13
6.55286e-13
6.51873e-13
6.4889e-13
6.45302e-13
6.43514e-13
6.40616e-13
4.17501e-28
5.96536e-28
1.53328e-28
3.09768e-28
9.49262e-28
6.24994e-28
1.51074e-27
2.92409e-31
2.99062e-28
6.28682e-29
2.41707e-28
3.99467e-29
5.95322e-28
3.99655e-29
3.71625e-28
2.79996e-29
2.35604e-28
1.71768e-28
9.36426e-28
5.70622e-30
2.52784e-14
3.88976e-14
2.19759e-15
1.26329e-16
7.03835e-18
4.22829e-19
2.14056e-20
1.67884e-21
3.45325e-23
1.7064e-23
7.37905e-25
1.26186e-24
4.30939e-25
2.70688e-25
1.21831e-25
6.70349e-26
1.81547e-26
1.49415e-27
4.27429e-27
9.3545e-29
)
;
    }
    frontAndBack
    {
        type            empty;
    }
}


// ************************************************************************* //
