/*--------------------------------*- C++ -*----------------------------------*\
| =========                 |                                                 |
| \\      /  F ield         | OpenFOAM: The Open Source CFD Toolbox           |
|  \\    /   O peration     | Version:  2506                                  |
|   \\  /    A nd           | Website:  www.openfoam.com                      |
|    \\/     M anipulation  |                                                 |
\*---------------------------------------------------------------------------*/
FoamFile
{
    version     2.0;
    format      ascii;
    arch        "LSB;label=32;scalar=64";
    class       volScalarField;
    location    "5";
    object      flowTypeField;
}
// * * * * * * * * * * * * * * * * * * * * * * * * * * * * * * * * * * * * * //

dimensions      [0 0 0 0 0 0 0];

internalField   nonuniform List<scalar> 
400
(
1.49917e-05
-0.000719637
-0.00114261
-0.00343355
-0.0014211
-0.0119693
0.0109976
-0.0601733
0.139211
-0.36772
0.795248
-0.147184
0.131944
0.0683206
0.11705
0.159335
0.377478
0.260778
0.72629
0.532665
0.00568193
0.000159421
0.000459526
-0.00189837
-0.000297142
-0.00639106
0.00246513
-0.0223823
0.0333307
-0.110826
0.275824
0.389771
0.876598
0.970972
0.663871
0.255204
0.910432
0.295244
0.673325
0.575897
0.00765385
0.00123511
0.00196455
0.00218715
0.00144822
0.00561962
-0.0038463
0.0224302
-0.0419592
0.105221
-0.193171
0.387685
0.873334
0.296025
0.789576
0.489571
0.0923265
0.766385
0.0401943
0.00634921
0.00362409
0.000607663
0.00081588
0.000803026
0.00119953
-0.000487696
0.00587923
-0.0148889
0.0484182
-0.143187
0.23088
0.484143
0.465188
0.968025
0.541502
0.0939404
0.0487184
0.0758413
0.0713999
0.0266096
0.00164616
0.000281776
0.000354156
0.000394491
0.000258997
0.00127234
-0.00266922
0.00991312
-0.0287112
0.08751
-0.427776
0.541982
0.955716
0.972239
0.911343
0.905481
0.919364
0.14295
0.170517
0.00193186
-1.8313e-05
1.60637e-05
-5.68981e-05
-3.55374e-06
1.58531e-06
-0.000414103
0.00195418
-0.0082664
0.030056
-0.107171
0.314615
0.0263724
0.71455
0.861433
0.577412
0.92643
0.600581
0.929501
0.36299
0.00521186
-0.000613927
-8.80109e-05
-0.000173507
-0.000165376
-0.000202639
-8.88621e-05
-0.00111737
0.00460574
-0.018746
0.0947258
-0.218821
0.349169
0.536186
0.807836
0.944153
0.181967
-0.26209
0.214675
0.159593
-0.155015
-0.00101466
-0.00015236
-0.000283321
-0.00024801
-0.000315777
-0.000515712
0.000628469
-0.00496084
0.0103278
-0.0469622
0.0358913
0.195798
0.823836
0.833566
0.966704
0.550173
0.799402
0.0130511
0.225703
0.72121
-0.00114813
-0.000178297
-0.000305702
-0.000304891
-0.000323487
-0.000510054
4.74464e-05
-0.00196892
0.000345582
-0.0109402
0.00467286
0.323244
0.548833
0.259617
-0.0155053
0.464456
0.196471
0.572341
-0.893913
-0.19793
-0.00121349
-0.000188315
-0.000329114
-0.0002896
-0.000424412
-0.00037489
-0.000843269
-0.0010893
0.00317841
0.00258721
0.17074
0.331072
0.519088
0.726637
0.389645
0.415667
-0.102795
-0.197995
0.690744
0.697173
-0.00118908
-0.000186538
-0.000317338
-0.000295706
-0.000378932
-0.000435331
-0.000894554
0.000166062
-0.00918563
0.0246573
-0.0057629
0.302492
0.742819
0.911098
0.672511
0.944543
0.876557
0.425777
0.703425
0.00678239
-0.00108642
-0.000171715
-0.000283746
-0.00027889
-0.000338266
-0.000387735
-0.000608633
0.00113106
-0.00853778
0.0246609
-0.00650531
0.458023
0.898149
0.377712
0.252672
0.496847
0.14431
0.495081
0.066559
0.0800181
-0.000985957
-0.000155158
-0.000264049
-0.000239123
-0.000320775
-0.000415857
0.000282784
-0.0032323
0.0119386
-0.0566163
0.100876
0.881517
0.382147
0.903025
0.557732
0.721405
0.661215
0.45393
0.810688
-0.149534
-0.00076537
-0.000122651
-0.000195332
-0.000202935
-0.000233057
-0.000144692
-0.00128647
0.00392874
-0.018455
0.0686681
-0.3346
0.942974
0.693675
0.736757
0.729355
0.0755428
0.32428
-0.275226
0.0573431
0.906288
-0.000659997
-0.000102343
-0.000184374
-0.000164441
-0.000161589
-0.000675123
0.00134442
-0.00610113
0.0233221
-0.0590554
0.247103
-0.279027
0.884974
0.0187752
-0.300526
0.140516
0.126892
-0.151145
0.0998375
-0.138811
-0.000269991
-4.59932e-05
-6.41159e-05
-5.92879e-05
-0.000184102
0.000579372
-0.00251284
0.00950301
-0.0267894
0.0825784
-0.302981
0.271955
0.934661
0.569373
0.490869
0.513074
0.936264
0.226828
0.549221
0.791456
-0.000426454
-6.59767e-05
-0.000123966
-0.000157377
0.000122445
-0.00138178
0.00375248
-0.011414
0.0344613
-0.112644
0.193255
0.0549903
0.698572
0.528457
0.494273
0.711248
0.0292729
0.88307
0.125677
0.287677
0.000412959
4.56891e-05
0.000124309
0.000374554
-0.000451179
0.00255456
-0.00498864
0.0151206
-0.0346837
0.0835846
-0.201376
0.442199
0.279203
0.494373
-0.093048
0.529525
0.949625
-0.16355
0.65195
0.00508889
-0.00334922
-0.00130058
-0.00197004
-0.00397884
-0.00336762
-0.00907549
-0.00260061
-0.0253423
0.0226928
-0.118894
0.27889
0.0125019
0.942635
0.724546
0.668352
0.196952
0.277418
-0.0195318
-0.0393008
0.104427
-0.00445434
-0.00144593
-0.00237214
-0.00439352
-0.00336239
-0.0121435
0.00446274
-0.0496337
0.0958168
-0.304288
0.920835
-0.214931
0.195848
0.108722
0.271655
0.180229
0.0935286
0.121231
0.661743
0.538156
)
;

boundaryField
{
    movingWall
    {
        type            calculated;
        value           nonuniform List<scalar> 
20
(
0.765032
0.267965
0.267592
0.26209
0.264842
0.248404
0.275345
0.187549
0.415077
-0.186024
0.541725
-0.178728
0.0699937
0.00977379
0.0800503
0.0490419
0.150464
0.0739246
0.0200608
0.554271
)
;
    }
    fixedWalls
    {
        type            calculated;
        value           nonuniform List<scalar> 
60
(
2.4337e-06
0.00108251
0.00146666
0.00070383
0.00033095
1.25144e-05
-0.00010163
-0.000180515
-0.000207558
-0.000222445
-0.000219214
-0.000201526
-0.000183234
-0.000142502
-0.000122687
-4.93279e-05
-7.87374e-05
8.01722e-05
-0.000634606
-0.000850432
0.114858
0.576059
0.00895624
0.0312344
0.00176745
0.00597567
0.0662155
0.949423
0.472983
0.578024
0.495623
0.0668042
-0.266095
0.738719
0.0631366
0.769479
0.500863
0.00267071
0.192281
0.217207
0.764164
0.267837
0.267388
0.261198
0.265654
0.245123
0.28198
0.169682
0.478417
-0.27272
0.410699
-0.134208
0.0420114
-0.0101175
0.0267637
0.0278785
0.0760172
0.186667
0.00114341
0.604627
)
;
    }
    frontAndBack
    {
        type            empty;
    }
}


// ************************************************************************* //
