/*--------------------------------*- C++ -*----------------------------------*\
| =========                 |                                                 |
| \\      /  F ield         | OpenFOAM: The Open Source CFD Toolbox           |
|  \\    /   O peration     | Version:  2506                                  |
|   \\  /    A nd           | Website:  www.openfoam.com                      |
|    \\/     M anipulation  |                                                 |
\*---------------------------------------------------------------------------*/
FoamFile
{
    version     2.0;
    format      ascii;
    arch        "LSB;label=32;scalar=64";
    class       surfaceScalarField;
    location    "5";
    object      fluxField;
}
// * * * * * * * * * * * * * * * * * * * * * * * * * * * * * * * * * * * * * //

dimensions      [0 3 -1 0 0 0 0];

oriented        oriented;

internalField   nonuniform List<scalar> 
760
(
-5e-05
-1.21103e-16
-5e-05
5.90184e-17
-5e-05
-4.83941e-19
-5e-05
4.54001e-18
-5e-05
1.47891e-18
-5e-05
6.88833e-19
-5e-05
4.96074e-19
-5e-05
2.45795e-19
-5e-05
1.82966e-19
-5e-05
1.19132e-19
-5e-05
8.71447e-20
-5e-05
6.00343e-20
-5e-05
4.10292e-20
-5e-05
2.73833e-20
-5e-05
2.0585e-20
-5e-05
1.9458e-20
-5e-05
1.51933e-20
-5e-05
8.60785e-21
-5e-05
4.67845e-21
3.96483e-21
-5e-05
-2.8602e-18
-5e-05
1.39487e-17
-5e-05
6.1437e-18
-5e-05
3.24301e-18
-5e-05
2.33087e-18
-5e-05
1.06957e-18
-5e-05
7.8395e-19
-5e-05
4.52224e-19
-5e-05
3.24412e-19
-5e-05
2.14999e-19
-5e-05
1.53028e-19
-5e-05
1.08097e-19
-5e-05
7.55578e-20
-5e-05
5.02103e-20
-5e-05
3.54556e-20
-5e-05
3.11205e-20
-5e-05
2.43683e-20
-5e-05
1.42124e-20
-5e-05
7.2007e-21
3.25328e-21
-5e-05
3.5389e-17
-5e-05
-1.77569e-17
-5e-05
8.39389e-18
-5e-05
4.35721e-19
-5e-05
2.32236e-18
-5e-05
1.00614e-18
-5e-05
8.5835e-19
-5e-05
5.39676e-19
-5e-05
3.96502e-19
-5e-05
2.73883e-19
-5e-05
1.97526e-19
-5e-05
1.41015e-19
-5e-05
9.98754e-20
-5e-05
7.01965e-20
-5e-05
5.29955e-20
-5e-05
4.06569e-20
-5e-05
2.88103e-20
-5e-05
1.85171e-20
-5e-05
9.36238e-21
2.65013e-21
-5e-05
-1.71339e-16
-5e-05
4.70361e-17
-5e-05
-9.97716e-18
-5e-05
4.27323e-18
-5e-05
4.99406e-19
-5e-05
1.14481e-18
-5e-05
6.88015e-19
-5e-05
5.50803e-19
-5e-05
3.93517e-19
-5e-05
2.89452e-19
-5e-05
2.14587e-19
-5e-05
1.56644e-19
-5e-05
1.13791e-19
-5e-05
8.39661e-20
-5e-05
6.51488e-20
-5e-05
4.82467e-20
-5e-05
3.45028e-20
-5e-05
2.28687e-20
-5e-05
1.2917e-20
4.27891e-21
-5e-05
1.97191e-16
-5e-05
-4.93262e-17
-5e-05
1.30781e-17
-5e-05
-2.06789e-18
-5e-05
1.63938e-18
-5e-05
5.64166e-19
-5e-05
6.57313e-19
-5e-05
4.61388e-19
-5e-05
3.64968e-19
-5e-05
2.71113e-19
-5e-05
2.06832e-19
-5e-05
1.56287e-19
-5e-05
1.19465e-19
-5e-05
9.18705e-20
-5e-05
6.83131e-20
-5e-05
4.99404e-20
-5e-05
3.89835e-20
-5e-05
2.51399e-20
-5e-05
1.49586e-20
4.93295e-21
-5e-05
-2.25217e-16
-5e-05
5.50756e-17
-5e-05
-1.2609e-17
-5e-05
3.79677e-18
-5e-05
-1.41287e-19
-5e-05
7.47414e-19
-5e-05
4.33641e-19
-5e-05
3.97606e-19
-5e-05
3.07726e-19
-5e-05
2.43625e-19
-5e-05
1.85043e-19
-5e-05
1.44556e-19
-5e-05
1.14572e-19
-5e-05
9.19623e-20
-5e-05
6.9351e-20
-5e-05
4.95636e-20
-5e-05
3.64387e-20
-5e-05
2.01138e-20
-5e-05
1.19544e-20
3.95113e-21
-5e-05
2.17224e-16
-5e-05
-5.21565e-17
-5e-05
1.28572e-17
-5e-05
-2.58312e-18
-5e-05
1.15622e-18
-5e-05
2.31089e-19
-5e-05
3.99974e-19
-5e-05
2.95139e-19
-5e-05
2.53419e-19
-5e-05
2.00373e-19
-5e-05
1.53326e-19
-5e-05
1.20475e-19
-5e-05
9.8578e-20
-5e-05
8.07713e-20
-5e-05
6.63494e-20
-5e-05
4.7624e-20
-5e-05
2.93577e-20
-5e-05
1.28324e-20
-5e-05
7.9163e-21
3.4833e-21
-5e-05
-2.22466e-16
-5e-05
5.32328e-17
-5e-05
-1.24267e-17
-5e-05
3.27765e-18
-5e-05
-4.33383e-19
-5e-05
4.4449e-19
-5e-05
2.06958e-19
-5e-05
2.28309e-19
-5e-05
1.76614e-19
-5e-05
1.46283e-19
-5e-05
1.15641e-19
-5e-05
9.3899e-20
-5e-05
7.81067e-20
-5e-05
6.2844e-20
-5e-05
5.11843e-20
-5e-05
3.73937e-20
-5e-05
2.2452e-20
-5e-05
1.12419e-20
-5e-05
4.83417e-21
1.57633e-21
-5e-05
2.124e-16
-5e-05
-5.03858e-17
-5e-05
1.21115e-17
-5e-05
-2.7009e-18
-5e-05
8.35222e-19
-5e-05
-4.92528e-21
-5e-05
1.79068e-19
-5e-05
1.15011e-19
-5e-05
1.03774e-19
-5e-05
8.75736e-20
-5e-05
7.97316e-20
-5e-05
6.89719e-20
-5e-05
5.56891e-20
-5e-05
4.47315e-20
-5e-05
3.1452e-20
-5e-05
2.46681e-20
-5e-05
1.57119e-20
-5e-05
1.18462e-20
-5e-05
4.89262e-21
8.2771e-22
-5e-05
-2.08504e-16
-5e-05
4.94247e-17
-5e-05
-1.16773e-17
-5e-05
2.82574e-18
-5e-05
-6.06891e-19
-5e-05
2.08707e-19
-5e-05
1.03569e-20
-5e-05
5.33267e-20
-5e-05
4.06258e-20
-5e-05
4.25699e-20
-5e-05
4.08361e-20
-5e-05
3.44505e-20
-5e-05
2.64889e-20
-5e-05
2.28683e-20
-5e-05
1.69246e-20
-5e-05
1.58297e-20
-5e-05
1.17101e-20
-5e-05
1.04342e-20
-5e-05
5.53262e-21
2.36741e-21
-5e-05
2.00528e-16
-5e-05
-4.73248e-17
-5e-05
1.1172e-17
-5e-05
-2.6954e-18
-5e-05
5.75947e-19
-5e-05
-1.91589e-19
-5e-05
-2.48253e-21
-5e-05
-3.4837e-20
-5e-05
-1.07572e-20
-5e-05
-7.79167e-21
-5e-05
-6.93531e-21
-5e-05
-4.56695e-21
-5e-05
-1.16657e-21
-5e-05
5.29933e-22
-5e-05
2.6194e-21
-5e-05
5.54831e-21
-5e-05
9.97572e-21
-5e-05
9.3733e-21
-5e-05
3.68796e-21
1.93281e-21
-5e-05
-1.91127e-16
-5e-05
4.49949e-17
-5e-05
-1.08045e-17
-5e-05
2.37309e-18
-5e-05
-7.55158e-19
-5e-05
-5.0415e-21
-5e-05
-1.58374e-19
-5e-05
-9.3434e-20
-5e-05
-7.8233e-20
-5e-05
-6.52359e-20
-5e-05
-5.34209e-20
-5e-05
-3.7035e-20
-5e-05
-2.10142e-20
-5e-05
-1.35171e-20
-5e-05
-1.0471e-20
-5e-05
-6.92173e-21
-5e-05
6.90727e-22
-5e-05
3.3215e-21
-5e-05
2.02111e-21
1.02119e-21
-5e-05
1.88086e-16
-5e-05
-4.42932e-17
-5e-05
1.02069e-17
-5e-05
-2.74316e-18
-5e-05
2.90479e-19
-5e-05
-3.94264e-19
-5e-05
-1.87363e-19
-5e-05
-1.8567e-19
-5e-05
-1.34713e-19
-5e-05
-1.09984e-19
-5e-05
-8.55934e-20
-5e-05
-6.53957e-20
-5e-05
-4.51105e-20
-5e-05
-3.06583e-20
-5e-05
-2.17314e-20
-5e-05
-1.63843e-20
-5e-05
-1.19361e-20
-5e-05
-7.0726e-21
-5e-05
3.22788e-22
1.02132e-21
-5e-05
-1.75284e-16
-5e-05
4.10288e-17
-5e-05
-1.01793e-17
-5e-05
1.85071e-18
-5e-05
-9.9582e-19
-5e-05
-2.65179e-19
-5e-05
-3.57245e-19
-5e-05
-2.53133e-19
-5e-05
-1.99789e-19
-5e-05
-1.46291e-19
-5e-05
-1.11362e-19
-5e-05
-8.55053e-20
-5e-05
-6.3769e-20
-5e-05
-4.61427e-20
-5e-05
-2.94682e-20
-5e-05
-1.88058e-20
-5e-05
-1.68663e-20
-5e-05
-1.06261e-20
-5e-05
-1.94631e-21
5.48929e-22
-5e-05
1.81176e-16
-5e-05
-4.27055e-17
-5e-05
9.3003e-18
-5e-05
-3.04591e-18
-5e-05
-1.21199e-19
-5e-05
-6.85721e-19
-5e-05
-4.13165e-19
-5e-05
-3.41971e-19
-5e-05
-2.47875e-19
-5e-05
-1.81816e-19
-5e-05
-1.31045e-19
-5e-05
-9.38061e-20
-5e-05
-6.64024e-20
-5e-05
-4.92923e-20
-5e-05
-3.50136e-20
-5e-05
-2.31465e-20
-5e-05
-1.93341e-20
-5e-05
-1.27898e-20
-5e-05
-7.93083e-21
-2.17162e-21
-5e-05
-1.65591e-16
-5e-05
3.83946e-17
-5e-05
-1.04632e-17
-5e-05
1.12471e-18
-5e-05
-1.49569e-18
-5e-05
-6.06959e-19
-5e-05
-5.80503e-19
-5e-05
-3.81001e-19
-5e-05
-2.77367e-19
-5e-05
-1.95696e-19
-5e-05
-1.37008e-19
-5e-05
-9.34562e-20
-5e-05
-6.57693e-20
-5e-05
-5.01136e-20
-5e-05
-3.9762e-20
-5e-05
-3.05879e-20
-5e-05
-2.16065e-20
-5e-05
-1.61886e-20
-5e-05
-1.12016e-20
-3.51848e-21
-5e-05
1.85688e-16
-5e-05
-4.39654e-17
-5e-05
7.49342e-18
-5e-05
-3.98899e-18
-5e-05
-8.76942e-19
-5e-05
-9.99499e-19
-5e-05
-5.95596e-19
-5e-05
-4.11135e-19
-5e-05
-2.75455e-19
-5e-05
-1.86463e-19
-5e-05
-1.25011e-19
-5e-05
-8.35851e-20
-5e-05
-6.27671e-20
-5e-05
-4.86422e-20
-5e-05
-3.60557e-20
-5e-05
-2.8343e-20
-5e-05
-1.95348e-20
-5e-05
-1.38192e-20
-5e-05
-7.12874e-21
-2.51513e-21
-5e-05
-1.4934e-16
-5e-05
3.1956e-17
-5e-05
-1.56986e-17
-5e-05
5.45643e-19
-5e-05
-2.60574e-18
-5e-05
-5.92304e-19
-5e-05
-6.59765e-19
-5e-05
-3.19747e-19
-5e-05
-2.38316e-19
-5e-05
-1.47073e-19
-5e-05
-1.02137e-19
-5e-05
-6.72338e-20
-5e-05
-5.20567e-20
-5e-05
-3.91689e-20
-5e-05
-2.89358e-20
-5e-05
-2.01381e-20
-5e-05
-1.29809e-20
-5e-05
-7.12232e-21
-5e-05
-3.16546e-21
-2.16913e-21
-5e-05
1.74352e-16
-5e-05
-6.11403e-17
-5e-05
3.89647e-18
-5e-05
-3.88739e-18
-5e-05
-1.08395e-18
-5e-05
-4.99646e-19
-5e-05
-3.87612e-19
-5e-05
-1.77992e-19
-5e-05
-1.35509e-19
-5e-05
-8.22707e-20
-5e-05
-6.30027e-20
-5e-05
-4.07789e-20
-5e-05
-2.97644e-20
-5e-05
-2.22007e-20
-5e-05
-2.05106e-20
-5e-05
-1.31412e-20
-5e-05
-5.94476e-21
-5e-05
-1.30723e-21
-5e-05
-9.88265e-22
-7.99574e-22
-5e-05
-5e-05
-5e-05
-5e-05
-5e-05
-5e-05
-5e-05
-5e-05
-5e-05
-5e-05
-5e-05
-5e-05
-5e-05
-5e-05
-5e-05
-5e-05
-5e-05
-5e-05
-5e-05
)
;

boundaryField
{
    movingWall
    {
        type            calculated;
        value           uniform -0;
    }
    fixedWalls
    {
        type            calculated;
        value           nonuniform List<scalar> 
60
(
5e-05
5e-05
5e-05
5e-05
5e-05
5e-05
5e-05
5e-05
5e-05
5e-05
5e-05
5e-05
5e-05
5e-05
5e-05
5e-05
5e-05
5e-05
5e-05
5e-05
-5e-05
-5e-05
-5e-05
-5e-05
-5e-05
-5e-05
-5e-05
-5e-05
-5e-05
-5e-05
-5e-05
-5e-05
-5e-05
-5e-05
-5e-05
-5e-05
-5e-05
-5e-05
-5e-05
-5e-05
0
0
0
0
0
0
0
0
0
0
0
0
0
0
0
0
0
0
0
0
)
;
    }
    frontAndBack
    {
        type            empty;
    }
}


// ************************************************************************* //
