/*--------------------------------*- C++ -*----------------------------------*\
| =========                 |                                                 |
| \\      /  F ield         | OpenFOAM: The Open Source CFD Toolbox           |
|  \\    /   O peration     | Version:  2506                                  |
|   \\  /    A nd           | Website:  www.openfoam.com                      |
|    \\/     M anipulation  |                                                 |
\*---------------------------------------------------------------------------*/
FoamFile
{
    version     2.0;
    format      ascii;
    arch        "LSB;label=32;scalar=64";
    class       volTensorField;
    location    "5";
    object      gradU;
}
// * * * * * * * * * * * * * * * * * * * * * * * * * * * * * * * * * * * * * //

dimensions      [0 0 -1 0 0 0 0];

internalField   nonuniform List<tensor> 
400
(
(1.92717e-10 2.24748e-07 0 2.76472e-12 -4.84411e-10 0 0 0 0)
(-5.38306e-11 -2.78046e-07 0 2.00198e-10 2.36074e-10 0 0 0 0)
(-1.64853e-10 6.59804e-08 0 -7.5596e-11 -1.93576e-12 0 0 0 0)
(7.06629e-11 -1.56833e-08 0 5.40204e-11 1.81601e-11 0 0 0 0)
(-4.45065e-11 3.71876e-09 0 -5.55654e-12 5.91564e-12 0 0 0 0)
(8.91756e-12 -8.85757e-10 0 1.06523e-11 2.75533e-12 0 0 0 0)
(-6.53232e-12 2.09529e-10 0 2.19551e-12 1.9843e-12 0 0 0 0)
(1.89735e-13 -5.02627e-11 0 3.03577e-12 9.83179e-13 0 0 0 0)
(-1.16552e-12 1.173e-11 0 1.57209e-12 7.31865e-13 0 0 0 0)
(-4.06576e-13 -2.91093e-12 0 1.21973e-12 4.76527e-13 0 0 0 0)
(-4.06576e-13 6.05936e-13 0 7.86047e-13 3.48579e-13 0 0 0 0)
(-2.1684e-13 -2.11943e-13 0 5.69206e-13 2.40137e-13 0 0 0 0)
(-1.6263e-13 4.21389e-15 0 4.06576e-13 1.64117e-13 0 0 0 0)
(-1.0842e-13 -2.52394e-14 0 2.43945e-13 1.09533e-13 0 0 0 0)
(-8.13152e-14 -5.12319e-15 0 1.89735e-13 8.23399e-14 0 0 0 0)
(-8.13152e-14 -1.0884e-14 0 1.35525e-13 7.78318e-14 0 0 0 0)
(-8.13152e-14 -1.29146e-14 0 5.42101e-14 6.07733e-14 0 0 0 0)
(-2.71051e-14 -1.02564e-14 0 2.71051e-14 3.44314e-14 0 0 0 0)
(0 -3.6407e-15 0 0 1.87138e-14 0 0 0 0)
(-2.71051e-14 -1.36781e-14 0 0 1.58593e-14 0 0 0 0)
(1.0327e-11 -2.24996e-07 0 -1.27792e-09 4.7297e-10 0 0 0 0)
(-2.45572e-11 2.78529e-07 0 4.43439e-11 -1.80279e-10 0 0 0 0)
(1.86754e-11 -6.61983e-08 0 -3.04119e-11 2.65106e-11 0 0 0 0)
(-7.04731e-13 1.56912e-08 0 -2.97885e-11 -5.188e-12 0 0 0 0)
(1.13841e-12 -3.73417e-09 0 1.11131e-12 3.40783e-12 0 0 0 0)
(-1.11131e-12 8.81826e-10 0 -5.63785e-12 1.52294e-12 0 0 0 0)
(-1.0842e-12 -2.11301e-10 0 -5.14996e-13 1.1515e-12 0 0 0 0)
(-8.13152e-13 4.90102e-11 0 -1.11131e-12 8.25717e-13 0 0 0 0)
(-6.50521e-13 -1.22367e-11 0 -3.79471e-13 5.65783e-13 0 0 0 0)
(-3.79471e-13 2.52764e-12 0 -3.52366e-13 3.83468e-13 0 0 0 0)
(-2.43945e-13 -8.42325e-13 0 -1.89735e-13 2.63531e-13 0 0 0 0)
(-1.6263e-13 2.7481e-14 0 -1.35525e-13 1.9225e-13 0 0 0 0)
(-1.89735e-13 -1.34818e-13 0 -1.0842e-13 1.38114e-13 0 0 0 0)
(-8.13152e-14 -5.65376e-14 0 -5.42101e-14 9.1308e-14 0 0 0 0)
(-5.42101e-14 -2.65784e-14 0 -5.42101e-14 5.94825e-14 0 0 0 0)
(-2.71051e-14 -1.06826e-14 0 -8.13152e-14 4.66501e-14 0 0 0 0)
(-2.71051e-14 -3.04859e-14 0 -2.71051e-14 3.66998e-14 0 0 0 0)
(-2.71051e-14 -3.18031e-14 0 0 2.24183e-14 0 0 0 0)
(-5.42101e-14 -1.49314e-14 0 0 1.0089e-14 0 0 0 0)
(5.42101e-14 -2.08951e-14 0 0 -2.8462e-15 0 0 0 0)
(-1.04086e-09 2.25041e-07 0 1.72001e-09 1.52997e-10 0 0 0 0)
(1.19365e-09 -2.78493e-07 0 -3.41388e-10 -1.26822e-10 0 0 0 0)
(-2.39039e-10 6.61554e-08 0 1.29535e-10 9.00076e-12 0 0 0 0)
(1.02267e-10 -1.57064e-08 0 -3.40168e-11 -1.12292e-11 0 0 0 0)
(-2.0383e-11 3.72547e-09 0 5.3397e-12 -3.40315e-14 0 0 0 0)
(7.34547e-12 -8.88014e-10 0 -4.96022e-12 -2.53722e-13 0 0 0 0)
(-2.00577e-12 2.08832e-10 0 -8.13152e-13 2.97599e-13 0 0 0 0)
(3.25261e-13 -5.08484e-11 0 -1.13841e-12 3.49806e-13 0 0 0 0)
(-4.60786e-13 1.12878e-11 0 -4.87891e-13 2.8836e-13 0 0 0 0)
(-2.1684e-13 -3.21318e-12 0 -3.25261e-13 2.3554e-13 0 0 0 0)
(-1.6263e-13 4.14718e-13 0 -1.89735e-13 1.77993e-13 0 0 0 0)
(-1.35525e-13 -3.3736e-13 0 -1.0842e-13 1.31672e-13 0 0 0 0)
(-5.42101e-14 -9.67279e-14 0 -8.13152e-14 9.72705e-14 0 0 0 0)
(-8.13152e-14 -1.03871e-13 0 0 7.99449e-14 0 0 0 0)
(-1.0842e-13 -4.97811e-14 0 -2.71051e-14 7.01598e-14 0 0 0 0)
(-5.42101e-14 -3.36667e-14 0 0 3.81458e-14 0 0 0 0)
(0 -3.71464e-14 0 0 1.77681e-14 0 0 0 0)
(-2.71051e-14 -3.68673e-14 0 -2.71051e-14 1.72185e-14 0 0 0 0)
(0 -2.89052e-14 0 0 8.64672e-15 0 0 0 0)
(0 -2.09209e-14 0 0 -2.4126e-15 0 0 0 0)
(1.38886e-09 -2.2497e-07 0 -8.09547e-10 -8.2691e-10 0 0 0 0)
(-1.61497e-09 2.78385e-07 0 1.64365e-10 2.59172e-10 0 0 0 0)
(3.26047e-10 -6.60827e-08 0 -5.30717e-11 -7.34842e-11 0 0 0 0)
(-1.24927e-10 1.56821e-08 0 1.20889e-11 1.53501e-11 0 0 0 0)
(3.0195e-11 -3.72319e-09 0 -4.33681e-12 -7.29181e-12 0 0 0 0)
(-7.31836e-12 8.82158e-10 0 -4.60786e-13 5.54692e-13 0 0 0 0)
(2.76472e-12 -2.10697e-10 0 -1.21973e-12 -6.8134e-13 0 0 0 0)
(-4.60786e-13 4.9001e-11 0 -7.31836e-13 4.45088e-14 0 0 0 0)
(2.1684e-13 -1.23509e-11 0 -5.96311e-13 -1.19406e-14 0 0 0 0)
(-1.35525e-13 2.41728e-12 0 -3.52366e-13 6.2275e-14 0 0 0 0)
(-2.71051e-14 -9.46193e-13 0 -2.1684e-13 6.82472e-14 0 0 0 0)
(-8.13152e-14 -5.32411e-14 0 -1.35525e-13 6.25166e-14 0 0 0 0)
(-5.42101e-14 -1.86545e-13 0 -8.13152e-14 5.56616e-14 0 0 0 0)
(-2.71051e-14 -8.36483e-14 0 -8.13152e-14 5.50782e-14 0 0 0 0)
(-5.42101e-14 -6.83774e-14 0 -2.71051e-14 4.86129e-14 0 0 0 0)
(0 -6.30743e-14 0 0 3.03589e-14 0 0 0 0)
(-5.42101e-14 -5.14132e-14 0 2.71051e-14 2.27698e-14 0 0 0 0)
(0 -4.09245e-14 0 0 1.74064e-14 0 0 0 0)
(0 -3.45625e-14 0 0 1.42185e-14 0 0 0 0)
(0 -2.71292e-14 0 0 6.51511e-15 0 0 0 0)
(-1.68604e-09 2.24473e-07 0 3.58383e-10 1.47412e-09 0 0 0 0)
(1.9501e-09 -2.77739e-07 0 -7.11508e-11 -3.85449e-10 0 0 0 0)
(-3.91316e-10 6.59116e-08 0 2.21177e-11 9.2221e-11 0 0 0 0)
(1.51002e-10 -1.56402e-08 0 -5.42101e-12 -2.53645e-11 0 0 0 0)
(-3.28242e-11 3.71068e-09 0 8.13152e-13 4.55988e-12 0 0 0 0)
(1.04083e-11 -8.81403e-10 0 -1.0571e-12 -2.32258e-12 0 0 0 0)
(-2.33103e-12 2.08321e-10 0 -5.69206e-13 -1.22808e-13 0 0 0 0)
(9.21572e-13 -5.0179e-11 0 -4.87891e-13 -3.5766e-13 0 0 0 0)
(-2.71051e-14 1.13055e-11 0 -3.25261e-13 -1.14194e-13 0 0 0 0)
(1.35525e-13 -3.13299e-12 0 -2.71051e-13 -7.33564e-14 0 0 0 0)
(5.42101e-14 4.1496e-13 0 -1.89735e-13 -3.10211e-14 0 0 0 0)
(2.71051e-14 -3.49946e-13 0 -1.89735e-13 -1.42776e-15 0 0 0 0)
(-2.71051e-14 -1.04166e-13 0 -1.0842e-13 2.26974e-14 0 0 0 0)
(-2.71051e-14 -1.1092e-13 0 -1.0842e-13 3.16178e-14 0 0 0 0)
(-2.71051e-14 -7.45003e-14 0 -8.13152e-14 1.26574e-14 0 0 0 0)
(2.71051e-14 -5.95098e-14 0 -5.42101e-14 6.77477e-15 0 0 0 0)
(-2.71051e-14 -5.00989e-14 0 -5.42101e-14 1.7923e-14 0 0 0 0)
(-2.71051e-14 -4.54185e-14 0 0 9.08509e-15 0 0 0 0)
(-2.71051e-14 -3.97965e-14 0 0 8.16653e-15 0 0 0 0)
(0 -4.16545e-14 0 0 2.61617e-15 0 0 0 0)
(1.67618e-09 -2.23881e-07 0 1.67509e-11 -1.68964e-09 0 0 0 0)
(-1.95129e-09 2.77003e-07 0 -2.73761e-12 4.17607e-10 0 0 0 0)
(3.91722e-10 -6.57226e-08 0 4.98733e-12 -1.02748e-10 0 0 0 0)
(-1.46259e-10 1.55945e-08 0 -7.58942e-13 2.34587e-11 0 0 0 0)
(3.4586e-11 -3.70015e-09 0 1.6263e-13 -7.12265e-12 0 0 0 0)
(-8.67362e-12 8.77475e-10 0 -4.06576e-13 7.32992e-13 0 0 0 0)
(3.33392e-12 -2.08732e-10 0 -3.79471e-13 -8.9469e-13 0 0 0 0)
(-2.71051e-13 4.90096e-11 0 -4.06576e-13 -2.55126e-13 0 0 0 0)
(4.60786e-13 -1.20666e-11 0 -3.52366e-13 -2.28967e-13 0 0 0 0)
(0 2.50045e-12 0 -2.71051e-13 -1.09951e-13 0 0 0 0)
(8.13152e-14 -8.74264e-13 0 -2.71051e-13 -8.7156e-14 0 0 0 0)
(0 4.77347e-16 0 -1.89735e-13 -4.6925e-14 0 0 0 0)
(5.42101e-14 -1.535e-13 0 -1.0842e-13 -1.95709e-14 0 0 0 0)
(0 -9.36882e-14 0 -8.13152e-14 3.67121e-16 0 0 0 0)
(0 -9.32204e-14 0 -5.42101e-14 4.15164e-15 0 0 0 0)
(0 -5.78087e-14 0 -5.42101e-14 -1.50707e-15 0 0 0 0)
(0 -4.91028e-14 0 -8.13152e-14 -1.01792e-14 0 0 0 0)
(2.71051e-14 -5.06809e-14 0 -5.42101e-14 -2.01045e-14 0 0 0 0)
(5.42101e-14 -4.10314e-14 0 0 -1.20169e-14 0 0 0 0)
(0 -3.79119e-14 0 0 -3.92726e-15 0 0 0 0)
(-1.67208e-09 2.23201e-07 0 -1.50325e-10 1.76977e-09 0 0 0 0)
(1.93839e-09 -2.76153e-07 0 3.14419e-11 -4.28929e-10 0 0 0 0)
(-3.89283e-10 6.55175e-08 0 -1.26039e-11 1.01865e-10 0 0 0 0)
(1.46232e-10 -1.55446e-08 0 3.27971e-12 -2.55196e-11 0 0 0 0)
(-3.25261e-11 3.68795e-09 0 -8.94467e-13 5.19003e-12 0 0 0 0)
(9.83913e-12 -8.75175e-10 0 1.35525e-13 -2.0653e-12 0 0 0 0)
(-2.24972e-12 2.07333e-10 0 -2.43945e-13 -1.34665e-13 0 0 0 0)
(9.75782e-13 -4.95133e-11 0 -2.1684e-13 -4.0987e-13 0 0 0 0)
(2.71051e-14 1.14507e-11 0 -2.1684e-13 -2.17229e-13 0 0 0 0)
(2.43945e-13 -2.99118e-12 0 -2.71051e-13 -1.73011e-13 0 0 0 0)
(1.35525e-13 4.77986e-13 0 -1.6263e-13 -1.2687e-13 0 0 0 0)
(1.0842e-13 -2.82361e-13 0 -8.13152e-14 -9.63242e-14 0 0 0 0)
(1.0842e-13 -5.68742e-14 0 -1.35525e-13 -6.39775e-14 0 0 0 0)
(0 -8.71973e-14 0 -1.0842e-13 -4.47642e-14 0 0 0 0)
(8.13152e-14 -7.63745e-14 0 -8.13152e-14 -1.20066e-14 0 0 0 0)
(-5.42101e-14 -7.38406e-14 0 0 -7.75855e-15 0 0 0 0)
(5.42101e-14 -6.86963e-14 0 8.13152e-14 -2.8324e-14 0 0 0 0)
(2.71051e-14 -4.72562e-14 0 0 -2.91254e-14 0 0 0 0)
(0 -2.36193e-14 0 0 -1.61525e-14 0 0 0 0)
(-2.71051e-14 -2.57104e-14 0 2.71051e-14 -1.87134e-15 0 0 0 0)
(1.55724e-09 -2.22541e-07 0 2.38226e-10 -1.75876e-09 0 0 0 0)
(-1.81352e-09 2.75335e-07 0 -4.8247e-11 4.21557e-10 0 0 0 0)
(3.6356e-10 -6.53192e-08 0 1.9597e-11 -1.01135e-10 0 0 0 0)
(-1.34495e-10 1.54978e-08 0 -4.44523e-12 2.34431e-11 0 0 0 0)
(3.14419e-11 -3.6767e-09 0 1.30104e-12 -6.35842e-12 0 0 0 0)
(-8.10441e-12 8.7215e-10 0 -4.87891e-13 8.53602e-13 0 0 0 0)
(2.90024e-12 -2.07077e-10 0 -1.0842e-13 -7.72065e-13 0 0 0 0)
(-2.1684e-13 4.8927e-11 0 -2.43945e-13 -2.6732e-13 0 0 0 0)
(4.87891e-13 -1.18298e-11 0 -1.0842e-13 -3.07221e-13 0 0 0 0)
(1.35525e-13 2.59081e-12 0 -1.35525e-13 -2.16358e-13 0 0 0 0)
(1.6263e-13 -7.97577e-13 0 0 -1.5074e-13 0 0 0 0)
(1.0842e-13 6.33702e-14 0 -8.13152e-14 -1.06303e-13 0 0 0 0)
(2.71051e-14 -1.0194e-13 0 -8.13152e-14 -8.18855e-14 0 0 0 0)
(8.13152e-14 -4.17174e-14 0 -2.71051e-14 -7.17091e-14 0 0 0 0)
(5.42101e-14 -5.62147e-14 0 -5.42101e-14 -6.06604e-14 0 0 0 0)
(8.13152e-14 -7.41261e-14 0 -2.71051e-14 -4.09209e-14 0 0 0 0)
(5.42101e-14 -7.04697e-14 0 -5.42101e-14 -2.76227e-14 0 0 0 0)
(0 -3.85094e-14 0 0 -6.3623e-15 0 0 0 0)
(0 -1.37773e-14 0 0 -1.23285e-14 0 0 0 0)
(0 -1.9888e-14 0 -2.71051e-14 -7.62787e-15 0 0 0 0)
(-1.48205e-09 2.21864e-07 0 -2.66524e-10 1.73946e-09 0 0 0 0)
(1.71973e-09 -2.74495e-07 0 5.46438e-11 -4.14474e-10 0 0 0 0)
(-3.45454e-10 6.51194e-08 0 -2.0898e-11 9.81526e-11 0 0 0 0)
(1.27855e-10 -1.54498e-08 0 5.25838e-12 -2.39142e-11 0 0 0 0)
(-2.86229e-11 3.66536e-09 0 -1.30104e-12 5.07442e-12 0 0 0 0)
(8.5923e-12 -8.69589e-10 0 4.87891e-13 -1.79766e-12 0 0 0 0)
(-2.00577e-12 2.06212e-10 0 0 -1.11561e-13 0 0 0 0)
(9.75782e-13 -4.90484e-11 0 1.0842e-13 -4.53192e-13 0 0 0 0)
(8.13152e-14 1.15017e-11 0 0 -2.91358e-13 0 0 0 0)
(2.71051e-13 -2.8347e-12 0 5.42101e-14 -2.34838e-13 0 0 0 0)
(2.1684e-13 5.8804e-13 0 -5.42101e-14 -1.43636e-13 0 0 0 0)
(5.42101e-14 -2.13506e-13 0 -5.42101e-14 -9.97081e-14 0 0 0 0)
(8.13152e-14 -2.22802e-14 0 2.71051e-14 -8.96703e-14 0 0 0 0)
(8.13152e-14 -6.59723e-14 0 2.71051e-14 -7.24499e-14 0 0 0 0)
(5.42101e-14 -4.55863e-14 0 1.0842e-13 -7.89289e-14 0 0 0 0)
(5.42101e-14 -4.08029e-14 0 0 -5.09025e-14 0 0 0 0)
(0 -3.41377e-14 0 0 -2.69606e-14 0 0 0 0)
(8.13152e-14 -3.1962e-14 0 0 2.41741e-15 0 0 0 0)
(0 -2.48848e-14 0 2.71051e-14 2.33765e-16 0 0 0 0)
(0 -5.75399e-15 0 2.71051e-14 -2.99449e-15 0 0 0 0)
(1.34536e-09 -2.21216e-07 0 2.78965e-10 -1.68361e-09 0 0 0 0)
(-1.56784e-09 2.73694e-07 0 -5.63243e-11 3.99242e-10 0 0 0 0)
(3.1412e-10 -6.49286e-08 0 2.2199e-11 -9.51551e-11 0 0 0 0)
(-1.14925e-10 1.54047e-08 0 -4.90601e-12 2.21066e-11 0 0 0 0)
(2.67256e-11 -3.65458e-09 0 1.65341e-12 -5.76845e-12 0 0 0 0)
(-6.83047e-12 8.66964e-10 0 -3.52366e-13 8.54529e-13 0 0 0 0)
(2.49366e-12 -2.05733e-10 0 1.89735e-13 -6.74844e-13 0 0 0 0)
(-2.1684e-13 4.87472e-11 0 -5.42101e-14 -2.46737e-13 0 0 0 0)
(4.06576e-13 -1.16114e-11 0 -2.71051e-14 -2.52593e-13 0 0 0 0)
(8.13152e-14 2.73853e-12 0 0 -1.80015e-13 0 0 0 0)
(1.89735e-13 -6.62447e-13 0 -8.13152e-14 -1.55582e-13 0 0 0 0)
(1.35525e-13 1.17336e-13 0 -2.71051e-14 -1.38086e-13 0 0 0 0)
(1.0842e-13 -7.46815e-14 0 0 -1.16801e-13 0 0 0 0)
(1.0842e-13 -3.0976e-14 0 0 -8.74527e-14 0 0 0 0)
(8.13152e-14 -3.46673e-14 0 2.71051e-14 -5.81098e-14 0 0 0 0)
(0 -2.21578e-14 0 0 -3.53538e-14 0 0 0 0)
(2.71051e-14 -1.71498e-14 0 5.42101e-14 -1.6007e-14 0 0 0 0)
(0 -1.1315e-14 0 5.42101e-14 -5.64817e-15 0 0 0 0)
(0 -1.91892e-14 0 -2.71051e-14 2.56001e-15 0 0 0 0)
(-2.71051e-14 -1.71273e-14 0 -2.71051e-14 6.15879e-15 0 0 0 0)
(-1.25944e-09 2.20579e-07 0 -2.71972e-10 1.63613e-09 0 0 0 0)
(1.46294e-09 -2.72906e-07 0 5.51046e-11 -3.86998e-10 0 0 0 0)
(-2.93954e-10 6.47422e-08 0 -2.12775e-11 9.13973e-11 0 0 0 0)
(1.07309e-10 -1.53604e-08 0 4.93312e-12 -2.20846e-11 0 0 0 0)
(-2.40964e-11 3.64411e-09 0 -1.46367e-12 4.73135e-12 0 0 0 0)
(7.04731e-12 -8.64495e-10 0 4.06576e-13 -1.60118e-12 0 0 0 0)
(-1.5992e-12 2.05111e-10 0 -1.89735e-13 -5.13577e-14 0 0 0 0)
(8.13152e-13 -4.86262e-11 0 0 -3.52655e-13 0 0 0 0)
(8.13152e-14 1.15684e-11 0 -1.0842e-13 -2.05532e-13 0 0 0 0)
(1.89735e-13 -2.73769e-12 0 -5.42101e-14 -2.01446e-13 0 0 0 0)
(1.6263e-13 6.2997e-13 0 -5.42101e-14 -1.91086e-13 0 0 0 0)
(1.89735e-13 -1.74725e-13 0 2.71051e-14 -1.5607e-13 0 0 0 0)
(8.13152e-14 2.83527e-14 0 0 -1.10622e-13 0 0 0 0)
(8.13152e-14 -7.28112e-15 0 0 -8.93536e-14 0 0 0 0)
(1.0842e-13 6.51262e-15 0 -2.71051e-14 -5.72208e-14 0 0 0 0)
(2.71051e-14 1.29995e-15 0 0 -4.11254e-14 0 0 0 0)
(5.42101e-14 -4.43203e-15 0 0 -6.93768e-15 0 0 0 0)
(-5.42101e-14 -1.3395e-14 0 -5.42101e-14 -4.24355e-15 0 0 0 0)
(5.42101e-14 -1.30779e-14 0 0 -7.37861e-15 0 0 0 0)
(0 -1.44728e-14 0 0 -1.73838e-15 0 0 0 0)
(1.12855e-09 -2.19966e-07 0 2.47469e-10 -1.56662e-09 0 0 0 0)
(-1.3172e-09 2.72149e-07 0 -5.01715e-11 3.69279e-10 0 0 0 0)
(2.63922e-10 -6.45637e-08 0 1.89193e-11 -8.79062e-11 0 0 0 0)
(-9.50845e-11 1.5318e-08 0 -4.58075e-12 2.0274e-11 0 0 0 0)
(2.2199e-11 -3.6341e-09 0 1.30104e-12 -5.32442e-12 0 0 0 0)
(-5.52943e-12 8.62181e-10 0 -3.52366e-13 7.46189e-13 0 0 0 0)
(2.03288e-12 -2.04484e-10 0 1.35525e-13 -6.23564e-13 0 0 0 0)
(-1.35525e-13 4.85931e-11 0 5.42101e-14 -2.34388e-13 0 0 0 0)
(4.06576e-13 -1.14602e-11 0 1.0842e-13 -2.69903e-13 0 0 0 0)
(1.6263e-13 2.75298e-12 0 5.42101e-14 -2.29777e-13 0 0 0 0)
(2.43945e-13 -6.17071e-13 0 8.13152e-14 -1.85943e-13 0 0 0 0)
(1.6263e-13 1.978e-13 0 5.42101e-14 -1.29872e-13 0 0 0 0)
(8.13152e-14 -7.9652e-15 0 0 -7.93906e-14 0 0 0 0)
(5.42101e-14 2.2425e-14 0 -2.71051e-14 -5.61882e-14 0 0 0 0)
(5.42101e-14 1.35609e-14 0 -5.42101e-14 -5.23618e-14 0 0 0 0)
(2.71051e-14 2.81253e-14 0 0 -4.98802e-14 0 0 0 0)
(5.42101e-14 1.9732e-14 0 -5.42101e-14 -3.714e-14 0 0 0 0)
(0 -1.1756e-14 0 0 -2.42072e-14 0 0 0 0)
(0 -1.66841e-14 0 0 -6.66743e-15 0 0 0 0)
(0 -8.01032e-15 0 0 -3.64651e-15 0 0 0 0)
(-1.06217e-09 2.19382e-07 0 -2.24132e-10 1.51685e-09 0 0 0 0)
(1.23439e-09 -2.71428e-07 0 4.5157e-11 -3.57152e-10 0 0 0 0)
(-2.48337e-10 6.43932e-08 0 -1.7537e-11 8.40455e-11 0 0 0 0)
(8.96635e-11 -1.52778e-08 0 3.93023e-12 -2.0465e-11 0 0 0 0)
(-1.98951e-11 3.62458e-09 0 -1.21973e-12 4.18255e-12 0 0 0 0)
(5.93601e-12 -8.59794e-10 0 3.79471e-13 -1.55689e-12 0 0 0 0)
(-1.19262e-12 2.0413e-10 0 5.42101e-14 -1.15959e-13 0 0 0 0)
(7.04731e-13 -4.82725e-11 0 1.6263e-13 -3.68943e-13 0 0 0 0)
(1.0842e-13 1.1573e-11 0 1.35525e-13 -2.25921e-13 0 0 0 0)
(1.6263e-13 -2.65373e-12 0 1.6263e-13 -1.78992e-13 0 0 0 0)
(1.35525e-13 7.29875e-13 0 5.42101e-14 -1.2869e-13 0 0 0 0)
(8.13152e-14 -6.81728e-14 0 -5.42101e-14 -1.13443e-13 0 0 0 0)
(1.0842e-13 1.02037e-13 0 0 -9.63851e-14 0 0 0 0)
(8.13152e-14 1.97477e-14 0 2.71051e-14 -6.85647e-14 0 0 0 0)
(8.13152e-14 1.28206e-14 0 5.42101e-14 -4.50413e-14 0 0 0 0)
(0 1.65218e-14 0 2.71051e-14 -3.78502e-14 0 0 0 0)
(5.42101e-14 2.12409e-14 0 0 -5.05072e-14 0 0 0 0)
(2.71051e-14 1.70775e-14 0 5.42101e-14 -4.15764e-14 0 0 0 0)
(5.42101e-14 7.48282e-15 0 0 -6.79328e-15 0 0 0 0)
(0 -4.15885e-15 0 2.71051e-14 5.25137e-19 0 0 0 0)
(9.49598e-10 -2.18807e-07 0 1.74367e-10 -1.45348e-09 0 0 0 0)
(-1.11055e-09 2.70716e-07 0 -3.56974e-11 3.41288e-10 0 0 0 0)
(2.22614e-10 -6.4227e-08 0 1.29833e-11 -8.15447e-11 0 0 0 0)
(-7.87131e-11 1.52382e-08 0 -3.30682e-12 1.83755e-11 0 0 0 0)
(1.86754e-11 -3.61519e-09 0 8.94467e-13 -5.1452e-12 0 0 0 0)
(-4.39102e-12 8.57883e-10 0 -1.35525e-13 5.16342e-13 0 0 0 0)
(1.84314e-12 -2.03296e-10 0 2.71051e-13 -6.79525e-13 0 0 0 0)
(0 4.84831e-11 0 1.89735e-13 -2.69855e-13 0 0 0 0)
(3.52366e-13 -1.12703e-11 0 2.1684e-13 -2.60303e-13 0 0 0 0)
(1.35525e-13 2.85021e-12 0 1.89735e-13 -1.45229e-13 0 0 0 0)
(8.13152e-14 -5.51522e-13 0 2.1684e-13 -1.03074e-13 0 0 0 0)
(8.13152e-14 2.30104e-13 0 2.1684e-13 -8.04382e-14 0 0 0 0)
(1.35525e-13 3.69132e-14 0 8.13152e-14 -7.46342e-14 0 0 0 0)
(8.13152e-14 7.37688e-14 0 1.0842e-13 -6.19376e-14 0 0 0 0)
(5.42101e-14 4.42754e-14 0 2.71051e-14 -3.09473e-14 0 0 0 0)
(0 2.26594e-14 0 0 -9.6863e-15 0 0 0 0)
(0 1.60058e-14 0 5.42101e-14 -1.97208e-14 0 0 0 0)
(2.71051e-14 3.1958e-14 0 -5.42101e-14 -1.42141e-14 0 0 0 0)
(0 2.48929e-14 0 0 -9.07637e-15 0 0 0 0)
(-2.71051e-14 -1.21757e-15 0 0 -1.88955e-15 0 0 0 0)
(-9.23523e-10 2.1827e-07 0 -1.50677e-10 1.42584e-09 0 0 0 0)
(1.07298e-09 -2.70056e-07 0 2.99782e-11 -3.34937e-10 0 0 0 0)
(-2.15946e-10 6.40703e-08 0 -1.22244e-11 7.79184e-11 0 0 0 0)
(7.76018e-11 -1.52014e-08 0 2.71051e-12 -1.95865e-11 0 0 0 0)
(-1.67509e-11 3.60673e-09 0 -6.23416e-13 3.49848e-12 0 0 0 0)
(5.42101e-12 -8.55329e-10 0 5.96311e-13 -1.68217e-12 0 0 0 0)
(-9.48677e-13 2.03344e-10 0 2.71051e-13 -2.23682e-13 0 0 0 0)
(6.77626e-13 -4.78533e-11 0 2.98156e-13 -3.55353e-13 0 0 0 0)
(8.13152e-14 1.16976e-11 0 2.71051e-13 -1.92346e-13 0 0 0 0)
(2.1684e-13 -2.4965e-12 0 1.6263e-13 -1.42098e-13 0 0 0 0)
(1.0842e-13 7.94665e-13 0 1.89735e-13 -7.87313e-14 0 0 0 0)
(0 -3.9733e-14 0 1.0842e-13 -3.32033e-14 0 0 0 0)
(0 1.20537e-13 0 1.35525e-13 -1.05333e-14 0 0 0 0)
(0 6.34346e-14 0 0 -1.25985e-14 0 0 0 0)
(0 6.5072e-14 0 -2.71051e-14 -2.21816e-14 0 0 0 0)
(0 2.77483e-14 0 0 -1.73626e-14 0 0 0 0)
(0 1.67131e-14 0 0 -9.87151e-15 0 0 0 0)
(2.71051e-14 2.77219e-14 0 -2.71051e-14 -8.65471e-15 0 0 0 0)
(5.42101e-14 1.98074e-14 0 -5.42101e-14 -2.39381e-14 0 0 0 0)
(0 6.80707e-15 0 -2.71051e-14 -1.08822e-14 0 0 0 0)
(8.289e-10 -2.17716e-07 0 6.47811e-11 -1.38707e-09 0 0 0 0)
(-9.72069e-10 2.69368e-07 0 -1.43386e-11 3.244e-10 0 0 0 0)
(1.95346e-10 -6.39117e-08 0 4.44523e-12 -7.90542e-11 0 0 0 0)
(-6.71934e-11 1.51638e-08 0 -1.0571e-12 1.66825e-11 0 0 0 0)
(1.65883e-11 -3.59728e-09 0 7.04731e-13 -5.49798e-12 0 0 0 0)
(-3.44234e-12 8.54161e-10 0 4.87891e-13 3.15049e-13 0 0 0 0)
(1.5992e-12 -2.01969e-10 0 5.14996e-13 -6.69353e-13 0 0 0 0)
(-2.71051e-14 4.85144e-11 0 4.60786e-13 -1.56119e-13 0 0 0 0)
(1.6263e-13 -1.1057e-11 0 2.98156e-13 -1.17965e-13 0 0 0 0)
(5.42101e-14 2.96382e-12 0 2.43945e-13 -5.55201e-14 0 0 0 0)
(0 -4.42627e-13 0 1.35525e-13 -2.3854e-14 0 0 0 0)
(0 2.98302e-13 0 8.13152e-14 1.39985e-15 0 0 0 0)
(2.71051e-14 5.7518e-14 0 5.42101e-14 2.53215e-15 0 0 0 0)
(0 6.21205e-14 0 1.0842e-13 -3.28507e-15 0 0 0 0)
(0 3.95113e-14 0 8.13152e-14 -1.89937e-14 0 0 0 0)
(5.42101e-14 3.49695e-14 0 8.13152e-14 -2.97657e-14 0 0 0 0)
(-5.42101e-14 2.47137e-14 0 2.71051e-14 -9.08957e-15 0 0 0 0)
(0 1.78914e-14 0 8.13152e-14 -1.35951e-14 0 0 0 0)
(5.42101e-14 2.26654e-14 0 5.42101e-14 -1.30832e-14 0 0 0 0)
(0 3.36027e-14 0 2.71051e-14 -5.38744e-15 0 0 0 0)
(-8.73027e-10 2.17207e-07 0 -9.89334e-11 1.40511e-09 0 0 0 0)
(1.01259e-09 -2.68748e-07 0 1.98409e-11 -3.2944e-10 0 0 0 0)
(-2.02664e-10 6.37626e-08 0 -8.26704e-12 7.18266e-11 0 0 0 0)
(7.38613e-11 -1.51279e-08 0 2.57498e-12 -2.04548e-11 0 0 0 0)
(-1.52059e-11 3.59036e-09 0 4.06576e-13 2.47501e-12 0 0 0 0)
(5.20417e-12 -8.505e-10 0 1.19262e-12 -1.57016e-12 0 0 0 0)
(-9.75782e-13 2.02873e-10 0 7.58942e-13 -6.03696e-14 0 0 0 0)
(4.33681e-13 -4.73019e-11 0 5.42101e-13 -1.20537e-13 0 0 0 0)
(-2.71051e-14 1.17982e-11 0 4.06576e-13 7.64522e-15 0 0 0 0)
(0 -2.40239e-12 0 2.71051e-13 3.69308e-14 0 0 0 0)
(-5.42101e-14 8.51585e-13 0 1.6263e-13 4.79888e-14 0 0 0 0)
(-8.13152e-14 -1.33468e-14 0 1.6263e-13 3.94842e-14 0 0 0 0)
(0 1.15852e-13 0 8.13152e-14 1.2009e-14 0 0 0 0)
(2.71051e-14 4.19088e-14 0 8.13152e-14 5.88538e-15 0 0 0 0)
(-2.71051e-14 3.85913e-14 0 8.13152e-14 1.48253e-14 0 0 0 0)
(0 3.76524e-14 0 2.71051e-14 8.97979e-15 0 0 0 0)
(0 3.28837e-14 0 0 8.28683e-15 0 0 0 0)
(-2.71051e-14 2.37282e-14 0 2.71051e-14 9.47757e-15 0 0 0 0)
(0 2.80151e-14 0 0 1.62916e-14 0 0 0 0)
(-2.71051e-14 2.52777e-14 0 0 4.01339e-15 0 0 0 0)
(7.4978e-10 -2.1664e-07 0 -8.40257e-11 -1.34011e-09 0 0 0 0)
(-8.81402e-10 2.68035e-07 0 1.06252e-11 3.03686e-10 0 0 0 0)
(1.78107e-10 -6.36027e-08 0 -7.58942e-12 -9.2768e-11 0 0 0 0)
(-5.85198e-11 1.50944e-08 0 5.52943e-12 1.81385e-11 0 0 0 0)
(1.51788e-11 -3.5784e-09 0 1.65341e-12 -6.91521e-12 0 0 0 0)
(-3.08998e-12 8.51625e-10 0 2.1684e-12 1.62878e-12 0 0 0 0)
(9.75782e-13 -2.0052e-10 0 1.00289e-12 -2.56678e-13 0 0 0 0)
(-3.79471e-13 4.85825e-11 0 7.31836e-13 3.65554e-13 0 0 0 0)
(-8.13152e-14 -1.08995e-11 0 3.79471e-13 1.48556e-13 0 0 0 0)
(-1.6263e-13 3.00417e-12 0 2.43945e-13 1.57561e-13 0 0 0 0)
(-1.35525e-13 -4.40074e-13 0 1.35525e-13 9.14977e-14 0 0 0 0)
(-8.13152e-14 2.62323e-13 0 1.0842e-13 6.54052e-14 0 0 0 0)
(-2.71051e-14 2.39192e-14 0 1.0842e-13 4.28416e-14 0 0 0 0)
(-2.71051e-14 6.49368e-14 0 2.71051e-14 3.78932e-14 0 0 0 0)
(-2.71051e-14 4.26057e-14 0 -2.71051e-14 2.84796e-14 0 0 0 0)
(-5.42101e-14 2.8431e-14 0 0 3.28194e-14 0 0 0 0)
(-5.42101e-14 2.52115e-14 0 2.71051e-14 2.62157e-14 0 0 0 0)
(0 2.58961e-14 0 -2.71051e-14 2.67875e-14 0 0 0 0)
(0 1.72012e-14 0 2.71051e-14 1.58531e-14 0 0 0 0)
(0 1.32977e-14 0 0 1.38398e-15 0 0 0 0)
(-9.46481e-10 2.16171e-07 0 -7.29993e-10 1.29477e-09 0 0 0 0)
(1.08908e-09 -2.675e-07 0 3.50387e-10 -3.72385e-10 0 0 0 0)
(-2.0776e-10 6.3477e-08 0 -1.25442e-10 7.83802e-11 0 0 0 0)
(8.31312e-11 -1.5042e-08 0 6.00919e-11 -1.77321e-11 0 0 0 0)
(-1.85128e-11 3.57385e-09 0 -1.20889e-11 6.08717e-12 0 0 0 0)
(4.52654e-12 -8.43842e-10 0 7.67073e-12 3.70635e-13 0 0 0 0)
(-2.43945e-12 2.0161e-10 0 -5.42101e-13 1.08861e-12 0 0 0 0)
(-2.1684e-13 -4.68967e-11 0 1.19262e-12 5.67021e-13 0 0 0 0)
(-5.42101e-13 1.15902e-11 0 2.43945e-13 4.11229e-13 0 0 0 0)
(-2.43945e-13 -2.45945e-12 0 3.25261e-13 2.59208e-13 0 0 0 0)
(-1.89735e-13 7.5943e-13 0 1.89735e-13 1.56536e-13 0 0 0 0)
(-8.13152e-14 -6.2003e-14 0 1.35525e-13 1.0582e-13 0 0 0 0)
(-1.0842e-13 8.83403e-14 0 8.13152e-14 8.91691e-14 0 0 0 0)
(-8.13152e-14 2.75468e-14 0 5.42101e-14 6.78731e-14 0 0 0 0)
(-2.71051e-14 3.35175e-14 0 5.42101e-14 3.37009e-14 0 0 0 0)
(0 3.53886e-14 0 0 2.79876e-14 0 0 0 0)
(0 2.68518e-14 0 0 2.81445e-14 0 0 0 0)
(-2.71051e-14 1.33656e-14 0 -5.42101e-14 2.32604e-14 0 0 0 0)
(0 2.61153e-15 0 -2.71051e-14 8.70879e-15 0 0 0 0)
(-2.71051e-14 8.04065e-15 0 -2.71051e-14 5.47824e-15 0 0 0 0)
(3.70228e-10 -2.15718e-07 0 9.62338e-10 -6.9741e-10 0 0 0 0)
(-2.76959e-10 2.66819e-07 0 -3.86057e-10 2.44561e-10 0 0 0 0)
(-1.12188e-10 -6.3248e-08 0 1.50135e-10 -1.55859e-11 0 0 0 0)
(5.48877e-11 1.50221e-08 0 -6.61092e-11 1.55496e-11 0 0 0 0)
(-3.72694e-11 -3.5603e-09 0 1.21702e-11 4.33581e-12 0 0 0 0)
(8.48388e-12 8.46627e-10 0 -1.0327e-11 1.99858e-12 0 0 0 0)
(-5.50233e-12 -2.00323e-10 0 -8.13152e-13 1.55045e-12 0 0 0 0)
(3.79471e-13 4.79051e-11 0 -2.38524e-12 7.11967e-13 0 0 0 0)
(-9.48677e-13 -1.12074e-11 0 -1.02999e-12 5.42036e-13 0 0 0 0)
(-2.43945e-13 2.74947e-12 0 -8.94467e-13 3.29083e-13 0 0 0 0)
(-2.98156e-13 -5.93462e-13 0 -5.42101e-13 2.52011e-13 0 0 0 0)
(-1.6263e-13 1.94956e-13 0 -4.06576e-13 1.63115e-13 0 0 0 0)
(-1.35525e-13 -1.40275e-14 0 -2.71051e-13 1.19058e-13 0 0 0 0)
(-8.13152e-14 9.46862e-15 0 -1.89735e-13 8.88026e-14 0 0 0 0)
(-8.13152e-14 2.72012e-15 0 -1.0842e-13 8.20422e-14 0 0 0 0)
(-5.42101e-14 2.28746e-14 0 -5.42101e-14 5.2565e-14 0 0 0 0)
(-5.42101e-14 2.04843e-14 0 -5.42101e-14 2.37791e-14 0 0 0 0)
(0 6.46037e-15 0 5.42101e-14 5.2289e-15 0 0 0 0)
(0 -5.80927e-16 0 0 3.95306e-15 0 0 0 0)
(0 -8.89297e-16 0 0 3.1983e-15 0 0 0 0)
)
;

boundaryField
{
    movingWall
    {
        type            extrapolatedCalculated;
        value           nonuniform List<tensor> 
20
(
(3.70228e-10 -2.15718e-07 0 -8.55094e-10 1.13095e-06 0 0 0 0)
(-2.76959e-10 2.66819e-07 0 -6.25766e-10 -2.68082e-07 0 0 0 0)
(-1.12188e-10 -6.3248e-08 0 2.52598e-10 6.36785e-08 0 0 0 0)
(5.48877e-11 1.50221e-08 0 -1.76925e-10 -1.50897e-08 0 0 0 0)
(-3.72694e-11 -3.5603e-09 0 3.30402e-11 3.59006e-09 0 0 0 0)
(8.48388e-12 8.46627e-10 0 -2.79332e-11 -8.48465e-10 0 0 0 0)
(-5.50233e-12 -2.00323e-10 0 -7.54952e-13 2.03553e-10 0 0 0 0)
(3.79471e-13 4.79051e-11 0 -5.9952e-12 -4.71723e-11 0 0 0 0)
(-9.48677e-13 -1.12074e-11 0 -2.26485e-12 1.19328e-11 0 0 0 0)
(-2.43945e-13 2.74947e-12 0 -2.17604e-12 -2.34284e-12 0 0 0 0)
(-2.98156e-13 -5.93462e-13 0 -1.28786e-12 9.3486e-13 0 0 0 0)
(-1.6263e-13 1.94956e-13 0 -9.76996e-13 3.10055e-14 0 0 0 0)
(-1.35525e-13 -1.40275e-14 0 -6.21725e-13 1.55036e-13 0 0 0 0)
(-8.13152e-14 9.46862e-15 0 -4.88498e-13 8.71156e-14 0 0 0 0)
(-8.13152e-14 2.72012e-15 0 -3.10862e-13 1.17161e-13 0 0 0 0)
(-5.42101e-14 2.28746e-14 0 -1.33227e-13 7.62351e-14 0 0 0 0)
(-5.42101e-14 2.04843e-14 0 -4.44089e-14 2.56625e-14 0 0 0 0)
(0 6.46037e-15 0 8.88178e-14 -5.70194e-15 0 0 0 0)
(0 -5.80927e-16 0 0 -1.78959e-16 0 0 0 0)
(0 -8.89297e-16 0 0 -3.37823e-15 0 0 0 0)
)
;
    }
    fixedWalls
    {
        type            extrapolatedCalculated;
        value           nonuniform List<tensor> 
60
(
(-1.00542e-10 1.17868e-06 0 2.76472e-12 -4.84411e-10 0 0 0 0)
(1.11688e-10 -1.18061e-06 0 -1.27792e-09 4.7297e-10 0 0 0 0)
(-5.21228e-09 1.18057e-06 0 1.72001e-09 1.52997e-10 0 0 0 0)
(6.99161e-09 -1.18e-06 0 -8.09547e-10 -8.2691e-10 0 0 0 0)
(-8.4504e-09 1.17726e-06 0 3.58383e-10 1.47412e-09 0 0 0 0)
(8.42522e-09 -1.1741e-06 0 1.67509e-11 -1.68964e-09 0 0 0 0)
(-8.38343e-09 1.1705e-06 0 -1.50325e-10 1.76977e-09 0 0 0 0)
(7.82379e-09 -1.16703e-06 0 2.38226e-10 -1.75876e-09 0 0 0 0)
(-7.43041e-09 1.16347e-06 0 -2.66524e-10 1.73946e-09 0 0 0 0)
(6.75771e-09 -1.16007e-06 0 2.78965e-10 -1.68361e-09 0 0 0 0)
(-6.31459e-09 1.15673e-06 0 -2.71972e-10 1.63613e-09 0 0 0 0)
(5.66986e-09 -1.15352e-06 0 2.47469e-10 -1.56662e-09 0 0 0 0)
(-5.32472e-09 1.15047e-06 0 -2.24132e-10 1.51685e-09 0 0 0 0)
(4.77338e-09 -1.14746e-06 0 1.74367e-10 -1.45348e-09 0 0 0 0)
(-4.62732e-09 1.14465e-06 0 -1.50677e-10 1.42584e-09 0 0 0 0)
(4.17066e-09 -1.14175e-06 0 6.47811e-11 -1.38707e-09 0 0 0 0)
(-4.36815e-09 1.1391e-06 0 -9.89334e-11 1.40511e-09 0 0 0 0)
(3.77494e-09 -1.13613e-06 0 -8.40257e-11 -1.34011e-09 0 0 0 0)
(-4.70441e-09 1.13374e-06 0 -7.29993e-10 1.29477e-09 0 0 0 0)
(8.55094e-10 -1.13095e-06 0 9.62338e-10 -6.9741e-10 0 0 0 0)
(0 -2.88964e-14 0 0 1.58593e-14 0 0 0 0)
(8.88178e-14 -3.45409e-14 0 0 -2.8462e-15 0 0 0 0)
(0 -1.75116e-14 0 0 -2.4126e-15 0 0 0 0)
(0 -2.48905e-14 0 0 6.51511e-15 0 0 0 0)
(0 -4.3572e-14 0 0 2.61617e-15 0 0 0 0)
(0 -3.53552e-14 0 0 -3.92726e-15 0 0 0 0)
(-4.44089e-14 -2.7863e-14 0 2.71051e-14 -1.87134e-15 0 0 0 0)
(0 -2.78698e-14 0 -2.71051e-14 -7.62787e-15 0 0 0 0)
(-4.44089e-14 2.64847e-15 0 2.71051e-14 -2.99449e-15 0 0 0 0)
(0 -1.58918e-14 0 -2.71051e-14 6.15879e-15 0 0 0 0)
(-4.44089e-14 -2.19867e-14 0 0 -1.73838e-15 0 0 0 0)
(0 -8.93832e-15 0 0 -3.64651e-15 0 0 0 0)
(0 -7.40067e-15 0 2.71051e-14 5.25137e-19 0 0 0 0)
(-4.44089e-14 -8.94042e-15 0 0 -1.88955e-15 0 0 0 0)
(0 1.57545e-16 0 -2.71051e-14 -1.08822e-14 0 0 0 0)
(0 3.45883e-14 0 2.71051e-14 -5.38744e-15 0 0 0 0)
(-4.44089e-14 2.17073e-14 0 0 4.01339e-15 0 0 0 0)
(0 1.85347e-14 0 0 1.38398e-15 0 0 0 0)
(-4.44089e-14 1.61714e-14 0 -2.71051e-14 5.47824e-15 0 0 0 0)
(0 -3.37823e-15 0 0 3.1983e-15 0 0 0 0)
(1.92717e-10 2.24748e-07 0 -1.00542e-10 1.17868e-06 0 0 0 0)
(-5.38306e-11 -2.78046e-07 0 8.71392e-10 -2.79684e-07 0 0 0 0)
(-1.64853e-10 6.59804e-08 0 -3.15836e-10 6.649e-08 0 0 0 0)
(7.06629e-11 -1.56833e-08 0 2.11919e-10 -1.57624e-08 0 0 0 0)
(-4.45065e-11 3.71876e-09 0 -3.31291e-11 3.75678e-09 0 0 0 0)
(8.91756e-12 -8.85757e-10 0 3.38396e-11 -8.8736e-10 0 0 0 0)
(-6.53232e-12 2.09529e-10 0 2.62013e-12 2.13753e-10 0 0 0 0)
(1.89735e-13 -5.02627e-11 0 7.68274e-12 -4.92451e-11 0 0 0 0)
(-1.16552e-12 1.173e-11 0 3.41949e-12 1.27028e-11 0 0 0 0)
(-4.06576e-13 -2.91093e-12 0 2.93099e-12 -2.32499e-12 0 0 0 0)
(-4.06576e-13 6.05936e-13 0 1.82077e-12 1.05911e-12 0 0 0 0)
(-2.1684e-13 -2.11943e-13 0 1.37668e-12 9.87546e-14 0 0 0 0)
(-1.6263e-13 4.21389e-15 0 9.32587e-13 2.11335e-13 0 0 0 0)
(-1.0842e-13 -2.52394e-14 0 7.10543e-13 1.1561e-13 0 0 0 0)
(-8.13152e-14 -5.12319e-15 0 4.88498e-13 1.10378e-13 0 0 0 0)
(-8.13152e-14 -1.0884e-14 0 3.55271e-13 9.51174e-14 0 0 0 0)
(-8.13152e-14 -1.29146e-14 0 1.77636e-13 6.68416e-14 0 0 0 0)
(-2.71051e-14 -1.02564e-14 0 4.44089e-14 4.34592e-14 0 0 0 0)
(0 -3.6407e-15 0 8.88178e-14 2.58159e-14 0 0 0 0)
(-2.71051e-14 -1.36781e-14 0 0 2.88964e-14 0 0 0 0)
)
;
    }
    frontAndBack
    {
        type            empty;
    }
}


// ************************************************************************* //
