/*--------------------------------*- C++ -*----------------------------------*\
| =========                 |                                                 |
| \\      /  F ield         | OpenFOAM: The Open Source CFD Toolbox           |
|  \\    /   O peration     | Version:  2506                                  |
|   \\  /    A nd           | Website:  www.openfoam.com                      |
|    \\/     M anipulation  |                                                 |
\*---------------------------------------------------------------------------*/
FoamFile
{
    version     2.0;
    format      ascii;
    arch        "LSB;label=32;scalar=64";
    class       volVectorField;
    location    "5";
    object      gradPhi;
}
// * * * * * * * * * * * * * * * * * * * * * * * * * * * * * * * * * * * * * //

dimensions      [0 2 -1 0 0 0 0];

internalField   nonuniform List<vector> 
400
(
(-0.02 -1.32322e-14 0)
(-9.66974e-15 9.66901e-15 0)
(-1.78506e-15 1.78621e-15 0)
(-8.33798e-16 8.3388e-16 0)
(-5.29396e-16 5.28234e-16 0)
(-1.24077e-16 1.25458e-16 0)
(-1.20768e-16 1.20577e-16 0)
(-4.79765e-17 4.77925e-17 0)
(-3.80503e-17 3.8007e-17 0)
(-2.31611e-17 2.43287e-17 0)
(-1.98523e-17 1.84626e-17 0)
(-1.15805e-17 1.228e-17 0)
(-8.27181e-18 8.28378e-18 0)
(-4.96308e-18 5.43733e-18 0)
(-6.61744e-18 4.40013e-18 0)
(-1.65436e-18 3.99741e-18 0)
(-4.96308e-18 2.89967e-18 0)
(-1.65436e-18 1.49058e-18 0)
(0 4.56647e-19 0)
(0 1.73782e-18 0)
(-0.02 -9.89005e-16 0)
(-2.11758e-15 2.11625e-15 0)
(1.55345e-15 -1.55244e-15 0)
(-3.12674e-16 3.13025e-16 0)
(2.01832e-16 -2.01797e-16 0)
(-1.40621e-16 1.39291e-16 0)
(-3.14329e-17 3.18181e-17 0)
(-5.12852e-17 5.09462e-17 0)
(-2.81241e-17 2.83883e-17 0)
(-1.98523e-17 1.98261e-17 0)
(-1.32349e-17 1.23405e-17 0)
(-8.27181e-18 9.58049e-18 0)
(-6.61744e-18 7.14512e-18 0)
(-6.61744e-18 5.02832e-18 0)
(-1.65436e-18 2.03861e-18 0)
(0 1.64036e-18 0)
(-3.30872e-18 2.33157e-18 0)
(-1.65436e-18 1.5657e-18 0)
(-1.65436e-18 1.57274e-18 0)
(1.65436e-18 -1.75314e-18 0)
(-0.02 3.18109e-14 0)
(3.20549e-14 -3.20555e-14 0)
(-1.79167e-15 1.79037e-15 0)
(1.87274e-15 -1.87168e-15 0)
(-3.20946e-16 3.20033e-16 0)
(9.92617e-17 -9.95085e-17 0)
(-3.63959e-17 3.70393e-17 0)
(-8.27181e-18 7.42787e-18 0)
(-1.65436e-17 1.59221e-17 0)
(-9.92617e-18 1.1165e-17 0)
(-9.92617e-18 9.15836e-18 0)
(-6.61744e-18 6.6309e-18 0)
(-3.30872e-18 4.6341e-18 0)
(-3.30872e-18 3.47152e-18 0)
(-4.96308e-18 5.13175e-18 0)
(-3.30872e-18 3.50309e-18 0)
(0 2.69402e-19 0)
(-1.65436e-18 8.00513e-19 0)
(0 -2.26644e-19 0)
(0 7.40691e-19 0)
(-0.02 -4.76427e-14 0)
(-5.05424e-14 5.05432e-14 0)
(4.62559e-15 -4.62576e-15 0)
(-2.49974e-15 2.49908e-15 0)
(8.22218e-16 -8.21235e-16 0)
(-9.92617e-17 9.95593e-17 0)
(7.44463e-17 -7.4705e-17 0)
(-8.27181e-18 8.21904e-18 0)
(4.96308e-18 -5.25357e-18 0)
(-4.96308e-18 3.91569e-18 0)
(-3.30872e-18 3.67375e-18 0)
(-3.30872e-18 3.45996e-18 0)
(-3.30872e-18 2.76958e-18 0)
(0 2.75685e-18 0)
(-1.65436e-18 1.03004e-18 0)
(-1.65436e-18 3.10161e-19 0)
(-3.30872e-18 1.98237e-18 0)
(0 8.48707e-19 0)
(0 4.59828e-19 0)
(0 -2.18992e-19 0)
(-0.02 5.87606e-14 0)
(6.21312e-14 -6.21293e-14 0)
(-5.91765e-15 5.9169e-15 0)
(3.14494e-15 -3.14536e-15 0)
(-7.85822e-16 7.86261e-16 0)
(1.95215e-16 -1.96712e-16 0)
(-3.80503e-17 3.80737e-17 0)
(2.64698e-17 -2.67941e-17 0)
(3.30872e-18 -2.15548e-18 0)
(6.61744e-18 -6.21838e-18 0)
(1.65436e-18 -2.45582e-18 0)
(0 -1.08676e-18 0)
(0 1.39509e-18 0)
(-1.65436e-18 1.92133e-18 0)
(0 8.87112e-19 0)
(-1.65436e-18 3.36544e-19 0)
(0 -2.55294e-19 0)
(0 4.21795e-19 0)
(-1.65436e-18 1.49809e-18 0)
(-1.65436e-18 1.20769e-18 0)
(-0.02 -6.01841e-14 0)
(-6.46193e-14 6.46206e-14 0)
(6.57112e-15 -6.57283e-15 0)
(-3.06222e-15 3.06398e-15 0)
(9.26442e-16 -9.26583e-16 0)
(-1.22423e-16 1.23633e-16 0)
(8.93355e-17 -8.84872e-17 0)
(3.30872e-18 -4.48213e-18 0)
(1.48893e-17 -1.54826e-17 0)
(4.96308e-18 -3.1543e-18 0)
(3.30872e-18 -3.88487e-18 0)
(1.65436e-18 -1.37276e-18 0)
(1.65436e-18 -9.97749e-19 0)
(0 3.88942e-20 0)
(0 8.69899e-19 0)
(0 -1.66037e-19 0)
(0 4.0254e-19 0)
(0 -1.0773e-18 0)
(1.65436e-18 -1.69998e-18 0)
(1.65436e-18 -1.45221e-18 0)
(-0.02 5.99137e-14 0)
(6.39609e-14 -6.39608e-14 0)
(-6.54796e-15 6.54634e-15 0)
(3.09696e-15 -3.09585e-15 0)
(-8.17254e-16 8.17112e-16 0)
(1.88597e-16 -1.88467e-16 0)
(-3.63959e-17 3.55595e-17 0)
(2.97785e-17 -2.8395e-17 0)
(6.61744e-18 -6.7902e-18 0)
(9.92617e-18 -1.05485e-17 0)
(6.61744e-18 -7.11912e-18 0)
(6.61744e-18 -5.7825e-18 0)
(3.30872e-18 -4.01392e-18 0)
(3.30872e-18 -2.24507e-18 0)
(0 -1.03768e-18 0)
(0 6.00814e-19 0)
(1.65436e-18 -1.72987e-18 0)
(1.65436e-18 -1.86677e-18 0)
(0 -5.92303e-19 0)
(-1.65436e-18 9.33185e-19 0)
(-0.02 -5.68506e-14 0)
(-6.12775e-14 6.12763e-14 0)
(6.45035e-15 -6.45032e-15 0)
(-2.88024e-15 2.87932e-15 0)
(8.4207e-16 -8.41827e-16 0)
(-1.24077e-16 1.24582e-16 0)
(7.7755e-17 -7.85161e-17 0)
(6.61744e-18 -5.46023e-18 0)
(1.98523e-17 -1.94212e-17 0)
(8.27181e-18 -9.3448e-18 0)
(6.61744e-18 -6.31945e-18 0)
(3.30872e-18 -4.86541e-18 0)
(4.96308e-18 -3.33976e-18 0)
(3.30872e-18 -4.42321e-18 0)
(3.30872e-18 -2.88531e-18 0)
(1.65436e-18 -2.7705e-18 0)
(1.65436e-18 -1.10976e-18 0)
(0 1.39685e-19 0)
(0 -5.5063e-19 0)
(1.65436e-18 -1.06949e-18 0)
(-0.02 5.41103e-14 0)
(5.8073e-14 -5.8074e-14 0)
(-6.20551e-15 6.20773e-15 0)
(2.76444e-15 -2.76559e-15 0)
(-7.37845e-16 7.38045e-16 0)
(1.65436e-16 -1.65066e-16 0)
(-3.30872e-17 3.24372e-17 0)
(2.97785e-17 -2.98351e-17 0)
(1.15805e-17 -1.12297e-17 0)
(1.32349e-17 -1.34168e-17 0)
(8.27181e-18 -8.765e-18 0)
(4.96308e-18 -4.86671e-18 0)
(4.96308e-18 -4.47031e-18 0)
(1.65436e-18 -2.44877e-18 0)
(3.30872e-18 -4.16225e-18 0)
(3.30872e-18 -2.62707e-18 0)
(1.65436e-18 -2.09956e-18 0)
(0 3.57504e-19 0)
(1.65436e-18 3.38044e-20 0)
(0 -5.02045e-19 0)
(-0.02 -5.0078e-14 0)
(-5.42415e-14 5.42411e-14 0)
(5.94908e-15 -5.9488e-15 0)
(-2.52952e-15 2.52998e-15 0)
(7.29573e-16 -7.29885e-16 0)
(-1.12497e-16 1.11435e-16 0)
(6.78288e-17 -6.79096e-17 0)
(4.96308e-18 -5.20647e-18 0)
(1.65436e-17 -1.49675e-17 0)
(6.61744e-18 -7.93105e-18 0)
(6.61744e-18 -6.45749e-18 0)
(6.61744e-18 -7.30757e-18 0)
(6.61744e-18 -6.2966e-18 0)
(4.96308e-18 -4.62382e-18 0)
(3.30872e-18 -3.05414e-18 0)
(1.65436e-18 -1.55878e-18 0)
(1.65436e-18 -2.34968e-19 0)
(0 -1.01958e-18 0)
(0 3.48932e-19 0)
(-1.65436e-18 1.64331e-18 0)
(-0.02 4.68548e-14 0)
(5.05622e-14 -5.05648e-14 0)
(-5.64633e-15 5.64829e-15 0)
(2.38559e-15 -2.38579e-15 0)
(-6.36929e-16 6.36887e-16 0)
(1.42275e-16 -1.41111e-16 0)
(-2.81241e-17 2.78419e-17 0)
(2.31611e-17 -2.47746e-17 0)
(8.27181e-18 -8.32112e-18 0)
(9.92617e-18 -9.77158e-18 0)
(9.92617e-18 -9.68659e-18 0)
(6.61744e-18 -6.82078e-18 0)
(6.61744e-18 -5.55096e-18 0)
(4.96308e-18 -6.08833e-18 0)
(3.30872e-18 -2.86303e-18 0)
(1.65436e-18 -2.04102e-18 0)
(0 -3.3942e-19 0)
(0 5.33829e-19 0)
(0 -8.48258e-19 0)
(1.65436e-18 -1.46956e-18 0)
(-0.02 -4.29195e-14 0)
(-4.67771e-14 4.67781e-14 0)
(5.36509e-15 -5.36573e-15 0)
(-2.16225e-15 2.16288e-15 0)
(6.25349e-16 -6.26665e-16 0)
(-9.26442e-17 9.18116e-17 0)
(5.79026e-17 -5.75802e-17 0)
(4.96308e-18 -5.02551e-18 0)
(1.65436e-17 -1.539e-17 0)
(9.92617e-18 -1.20292e-17 0)
(1.15805e-17 -1.03219e-17 0)
(8.27181e-18 -8.17894e-18 0)
(3.30872e-18 -3.65525e-18 0)
(1.65436e-18 -8.08552e-19 0)
(3.30872e-18 -2.30956e-18 0)
(1.65436e-18 -3.03692e-18 0)
(1.65436e-18 -1.87487e-18 0)
(1.65436e-18 -1.17109e-18 0)
(0 4.48035e-19 0)
(0 9.55756e-19 0)
(-0.02 4.019e-14 0)
(4.35626e-14 -4.35627e-14 0)
(-5.07227e-15 5.07356e-15 0)
(2.05472e-15 -2.05462e-15 0)
(-5.34359e-16 5.34e-16 0)
(1.25731e-16 -1.26465e-16 0)
(-1.8198e-17 1.78934e-17 0)
(2.31611e-17 -2.35163e-17 0)
(9.92617e-18 -8.19227e-18 0)
(8.27181e-18 -9.03491e-18 0)
(4.96308e-18 -5.532e-18 0)
(4.96308e-18 -4.71799e-18 0)
(6.61744e-18 -4.93074e-18 0)
(3.30872e-18 -4.03658e-18 0)
(3.30872e-18 -2.19715e-18 0)
(1.65436e-18 -1.5009e-18 0)
(1.65436e-18 -3.10005e-18 0)
(3.30872e-18 -2.92997e-18 0)
(1.65436e-18 -1.23395e-18 0)
(0 -1.19651e-18 0)
(-0.02 -3.69312e-14 0)
(-4.05302e-14 4.05298e-14 0)
(4.86051e-15 -4.86038e-15 0)
(-1.85123e-15 1.85129e-15 0)
(5.52557e-16 -5.5061e-16 0)
(-7.11375e-17 7.06813e-17 0)
(5.45939e-17 -5.50374e-17 0)
(9.92617e-18 -9.29772e-18 0)
(1.65436e-17 -1.65077e-17 0)
(6.61744e-18 -6.35885e-18 0)
(4.96308e-18 -5.23173e-18 0)
(3.30872e-18 -3.90351e-18 0)
(4.96308e-18 -4.15897e-18 0)
(3.30872e-18 -3.85987e-18 0)
(3.30872e-18 -2.29185e-18 0)
(1.65436e-18 -5.13526e-19 0)
(0 -8.5827e-20 0)
(0 -2.11755e-19 0)
(0 3.19675e-19 0)
(0 1.18254e-18 0)
(-0.02 3.53622e-14 0)
(3.84258e-14 -3.8424e-14 0)
(-4.61236e-15 4.61139e-15 0)
(1.83138e-15 -1.83134e-15 0)
(-4.46678e-16 4.4647e-16 0)
(1.25731e-16 -1.24255e-16 0)
(-8.27181e-18 8.96855e-18 0)
(2.15067e-17 -2.16504e-17 0)
(6.61744e-18 -7.56143e-18 0)
(8.27181e-18 -8.73022e-18 0)
(3.30872e-18 -4.2463e-18 0)
(1.65436e-18 -1.67786e-18 0)
(0 3.83234e-19 0)
(0 2.29663e-19 0)
(0 -5.83801e-19 0)
(1.65436e-18 -3.5425e-19 0)
(1.65436e-18 -1.41834e-18 0)
(0 -3.5322e-19 0)
(1.65436e-18 -1.77654e-18 0)
(0 -1.28301e-18 0)
(-0.02 -3.30658e-14 0)
(-3.65845e-14 3.65842e-14 0)
(4.6107e-15 -4.61022e-15 0)
(-1.6312e-15 1.63073e-15 0)
(5.22778e-16 -5.22513e-16 0)
(-5.45939e-17 5.47482e-17 0)
(5.12852e-17 -5.18616e-17 0)
(6.61744e-18 -4.22761e-18 0)
(6.61744e-18 -7.1637e-18 0)
(0 -1.39495e-18 0)
(0 -1.34966e-18 0)
(1.65436e-18 -8.42928e-19 0)
(0 -8.49554e-19 0)
(0 1.30135e-20 0)
(1.65436e-18 -6.11007e-19 0)
(3.30872e-18 -2.13845e-18 0)
(-1.65436e-18 5.48999e-19 0)
(1.65436e-18 -8.00564e-19 0)
(0 -6.53941e-19 0)
(0 -7.90968e-19 0)
(-0.02 3.34374e-14 0)
(3.62437e-14 -3.6245e-14 0)
(-4.28976e-15 4.2914e-15 0)
(1.75528e-15 -1.756e-15 0)
(-3.7554e-16 3.75907e-16 0)
(1.14151e-16 -1.14727e-16 0)
(-1.15805e-17 1.22127e-17 0)
(9.92617e-18 -1.14164e-17 0)
(0 7.69851e-19 0)
(0 1.19518e-19 0)
(-1.65436e-18 2.04054e-18 0)
(-3.30872e-18 2.68087e-18 0)
(-1.65436e-18 1.29978e-18 0)
(0 -5.05859e-19 0)
(0 2.35829e-19 0)
(0 1.06693e-19 0)
(0 -6.26779e-19 0)
(0 3.00406e-19 0)
(0 8.54375e-19 0)
(-1.65436e-18 1.49033e-18 0)
(-0.02 -3.10104e-14 0)
(-3.46324e-14 3.46335e-14 0)
(4.69011e-15 -4.69148e-15 0)
(-1.53359e-15 1.53264e-15 0)
(5.70755e-16 -5.69158e-16 0)
(-8.60268e-17 8.56628e-17 0)
(3.30872e-17 -3.16229e-17 0)
(-1.98523e-17 1.90857e-17 0)
(-4.96308e-18 5.2287e-18 0)
(-8.27181e-18 8.25291e-18 0)
(-4.96308e-18 5.37524e-18 0)
(-3.30872e-18 3.26114e-18 0)
(-3.30872e-18 1.31961e-18 0)
(0 1.79575e-18 0)
(-1.65436e-18 1.63256e-18 0)
(-3.30872e-18 2.70811e-18 0)
(-3.30872e-18 2.21431e-18 0)
(0 1.42648e-18 0)
(0 1.12888e-18 0)
(0 -1.18241e-18 0)
(-0.02 3.32858e-14 0)
(3.46539e-14 -3.4654e-14 0)
(-2.26813e-15 2.26777e-15 0)
(1.37974e-15 -1.37885e-15 0)
(-2.99439e-16 2.99376e-16 0)
(-3.14329e-17 3.11117e-17 0)
(-5.62483e-17 5.6207e-17 0)
(-2.97785e-17 3.03101e-17 0)
(-2.31611e-17 2.19315e-17 0)
(-1.32349e-17 1.40172e-17 0)
(-6.61744e-18 6.97538e-18 0)
(-6.61744e-18 5.32977e-18 0)
(-3.30872e-18 5.26413e-18 0)
(-4.96308e-18 4.2205e-18 0)
(-1.65436e-18 1.22951e-18 0)
(0 4.50638e-19 0)
(0 5.01147e-19 0)
(0 1.52509e-18 0)
(0 3.31454e-19 0)
(-1.65436e-18 1.24193e-18 0)
(-0.02 -2.08221e-14 0)
(-1.86777e-14 1.86782e-14 0)
(-5.39322e-16 5.38006e-16 0)
(-9.89308e-16 9.88271e-16 0)
(-3.07711e-16 3.07949e-16 0)
(-9.5953e-17 9.83386e-17 0)
(-8.93355e-17 8.70914e-17 0)
(-3.63959e-17 3.63001e-17 0)
(-2.64698e-17 2.81891e-17 0)
(-1.8198e-17 1.63084e-17 0)
(-1.32349e-17 1.33436e-17 0)
(-8.27181e-18 8.2006e-18 0)
(-6.61744e-18 5.76939e-18 0)
(-4.96308e-18 4.12687e-18 0)
(-3.30872e-18 4.54033e-18 0)
(-3.30872e-18 3.05364e-18 0)
(-1.65436e-18 1.72473e-18 0)
(0 1.99642e-20 0)
(0 1.29793e-19 0)
(0 -2.14917e-19 0)
)
;

boundaryField
{
    movingWall
    {
        type            extrapolatedCalculated;
        value           nonuniform List<vector> 
20
(
(-0.02 -2.08221e-14 0)
(-1.86777e-14 1.86782e-14 0)
(-5.39322e-16 5.38006e-16 0)
(-9.89308e-16 9.88271e-16 0)
(-3.07711e-16 3.07949e-16 0)
(-9.5953e-17 9.83386e-17 0)
(-8.93355e-17 8.70914e-17 0)
(-3.63959e-17 3.63001e-17 0)
(-2.64698e-17 2.81891e-17 0)
(-1.8198e-17 1.63084e-17 0)
(-1.32349e-17 1.33436e-17 0)
(-8.27181e-18 8.2006e-18 0)
(-6.61744e-18 5.76939e-18 0)
(-4.96308e-18 4.12687e-18 0)
(-3.30872e-18 4.54033e-18 0)
(-3.30872e-18 3.05364e-18 0)
(-1.65436e-18 1.72473e-18 0)
(0 1.99642e-20 0)
(0 1.29793e-19 0)
(0 -2.14917e-19 0)
)
;
    }
    fixedWalls
    {
        type            extrapolatedCalculated;
        value           nonuniform List<vector> 
60
(
(-0.02 -1.32322e-14 0)
(-0.02 -9.89005e-16 0)
(-0.02 3.18109e-14 0)
(-0.02 -4.76427e-14 0)
(-0.02 5.87606e-14 0)
(-0.02 -6.01841e-14 0)
(-0.02 5.99137e-14 0)
(-0.02 -5.68506e-14 0)
(-0.02 5.41103e-14 0)
(-0.02 -5.0078e-14 0)
(-0.02 4.68548e-14 0)
(-0.02 -4.29195e-14 0)
(-0.02 4.019e-14 0)
(-0.02 -3.69312e-14 0)
(-0.02 3.53622e-14 0)
(-0.02 -3.30658e-14 0)
(-0.02 3.34374e-14 0)
(-0.02 -3.10104e-14 0)
(-0.02 3.32858e-14 0)
(-0.02 -2.08221e-14 0)
(0 1.73782e-18 0)
(1.65436e-18 -1.75314e-18 0)
(0 7.40691e-19 0)
(0 -2.18992e-19 0)
(-1.65436e-18 1.20769e-18 0)
(1.65436e-18 -1.45221e-18 0)
(-1.65436e-18 9.33185e-19 0)
(1.65436e-18 -1.06949e-18 0)
(0 -5.02045e-19 0)
(-1.65436e-18 1.64331e-18 0)
(1.65436e-18 -1.46956e-18 0)
(0 9.55756e-19 0)
(0 -1.19651e-18 0)
(0 1.18254e-18 0)
(0 -1.28301e-18 0)
(0 -7.90968e-19 0)
(-1.65436e-18 1.49033e-18 0)
(0 -1.18241e-18 0)
(-1.65436e-18 1.24193e-18 0)
(0 -2.14917e-19 0)
(-0.02 -1.32322e-14 0)
(-9.66974e-15 9.66901e-15 0)
(-1.78506e-15 1.78621e-15 0)
(-8.33798e-16 8.3388e-16 0)
(-5.29396e-16 5.28234e-16 0)
(-1.24077e-16 1.25458e-16 0)
(-1.20768e-16 1.20577e-16 0)
(-4.79765e-17 4.77925e-17 0)
(-3.80503e-17 3.8007e-17 0)
(-2.31611e-17 2.43287e-17 0)
(-1.98523e-17 1.84626e-17 0)
(-1.15805e-17 1.228e-17 0)
(-8.27181e-18 8.28378e-18 0)
(-4.96308e-18 5.43733e-18 0)
(-6.61744e-18 4.40013e-18 0)
(-1.65436e-18 3.99741e-18 0)
(-4.96308e-18 2.89967e-18 0)
(-1.65436e-18 1.49058e-18 0)
(0 4.56647e-19 0)
(0 1.73782e-18 0)
)
;
    }
    frontAndBack
    {
        type            empty;
    }
}


// ************************************************************************* //
