/*--------------------------------*- C++ -*----------------------------------*\
| =========                 |                                                 |
| \\      /  F ield         | OpenFOAM: The Open Source CFD Toolbox           |
|  \\    /   O peration     | Version:  2506                                  |
|   \\  /    A nd           | Website:  www.openfoam.com                      |
|    \\/     M anipulation  |                                                 |
\*---------------------------------------------------------------------------*/
FoamFile
{
    version     2.0;
    format      ascii;
    arch        "LSB;label=32;scalar=64";
    class       volScalarField;
    location    "5";
    object      initialResidual:Uy;
}
// * * * * * * * * * * * * * * * * * * * * * * * * * * * * * * * * * * * * * //

dimensions      [0 0 0 0 0 0 0];

internalField   nonuniform List<scalar> 
400
(
-2.77912e-15
1.19073e-15
-2.82879e-16
6.71732e-17
-1.59554e-17
3.79782e-18
-9.0415e-19
2.0626e-19
-4.86012e-20
1.72048e-20
5.53212e-21
4.07052e-21
-6.57887e-22
-1.38937e-21
2.09434e-21
-1.44256e-21
-4.47304e-21
2.32147e-22
3.29298e-21
4.93621e-22
2.78327e-15
-1.19264e-15
2.83069e-16
-6.7205e-17
1.59544e-17
-3.77836e-18
9.00828e-19
-2.0938e-19
6.24787e-20
-8.2415e-21
7.6119e-21
6.03079e-21
4.02597e-21
-3.88623e-21
1.63125e-21
7.79603e-21
1.70684e-21
-7.32739e-23
6.94536e-21
2.43471e-21
-2.77916e-15
1.19055e-15
-2.82621e-16
6.71037e-17
-1.59219e-17
3.78801e-18
-8.85687e-19
2.37482e-19
-3.34728e-20
1.60898e-20
-6.62765e-21
5.2116e-21
7.77839e-21
4.89566e-21
3.54158e-21
1.43183e-20
1.26094e-20
6.93366e-21
8.6475e-21
3.12907e-21
2.77137e-15
-1.1865e-15
2.81621e-16
-6.67798e-17
1.58739e-17
-3.74693e-18
9.08472e-19
-1.95829e-19
6.50885e-20
1.43305e-21
1.40683e-20
8.12208e-21
8.98724e-21
1.30994e-20
1.11875e-20
8.90997e-21
9.46237e-21
1.14092e-20
1.28032e-20
3.50352e-21
-2.76149e-15
1.18241e-15
-2.80468e-16
6.65943e-17
-1.57606e-17
3.77191e-18
-8.66644e-19
2.26759e-19
-3.55525e-20
2.19308e-20
1.42361e-20
1.61906e-20
1.22573e-20
1.29561e-20
1.02238e-20
8.25357e-21
9.57345e-21
1.06622e-20
1.72609e-20
5.92523e-21
2.75343e-15
-1.17866e-15
2.79696e-16
-6.62979e-17
1.57686e-17
-3.70663e-18
9.06058e-19
-1.938e-19
6.81913e-20
4.62292e-21
1.68638e-20
1.37043e-20
1.64122e-20
1.96408e-20
1.05979e-20
1.0277e-20
1.16096e-20
8.08581e-21
2.04121e-20
8.88087e-21
-2.74495e-15
1.17517e-15
-2.78698e-16
6.61702e-17
-1.56594e-17
3.74413e-18
-8.61713e-19
2.23101e-19
-3.25776e-20
3.95291e-20
2.17901e-20
1.54972e-20
1.46902e-20
1.86876e-20
1.5581e-20
1.61028e-20
1.10634e-20
6.8973e-21
2.49129e-20
8.35321e-21
2.73729e-15
-1.17166e-15
2.77996e-16
-6.58826e-17
1.56815e-17
-3.68e-18
9.04057e-19
-1.85095e-19
6.72293e-20
7.93662e-21
1.90869e-20
9.78062e-21
1.32149e-20
1.54504e-20
2.3048e-20
2.0151e-20
1.30306e-20
1.27574e-20
2.32869e-20
6.66121e-21
-2.72933e-15
1.16841e-15
-2.77099e-16
6.57861e-17
-1.5552e-17
3.73316e-18
-8.50372e-19
2.32042e-19
-2.93295e-20
2.69671e-20
1.04594e-20
1.91399e-20
1.5811e-20
1.24718e-20
1.5136e-20
1.32294e-20
1.55323e-20
1.70212e-20
1.79819e-20
7.38642e-21
2.72231e-15
-1.16526e-15
2.76465e-16
-6.55399e-17
1.55788e-17
-3.65932e-18
9.05797e-19
-1.79092e-19
7.21775e-20
8.53495e-21
2.66697e-20
2.64645e-20
1.78144e-20
1.05979e-20
6.91217e-21
9.96187e-21
9.93224e-21
1.20196e-20
2.23004e-20
6.74707e-21
-2.71538e-15
1.16244e-15
-2.75692e-16
6.54384e-17
-1.54841e-17
3.71373e-18
-8.44023e-19
2.38136e-19
-1.82313e-20
2.97124e-20
1.25369e-20
1.79012e-20
1.79367e-20
9.42107e-21
1.32268e-20
1.6593e-20
1.21525e-20
5.88801e-21
1.18542e-20
4.74143e-21
2.70931e-15
-1.15975e-15
2.75156e-16
-6.52248e-17
1.55174e-17
-3.63948e-18
8.97449e-19
-1.85423e-19
7.19748e-20
2.36439e-21
1.66066e-20
2.04478e-20
2.27741e-20
1.02756e-20
1.22102e-20
1.58944e-20
1.93712e-20
6.38413e-21
4.61254e-21
4.41453e-21
-2.70363e-15
1.15743e-15
-2.74526e-16
6.51685e-17
-1.54127e-17
3.69615e-18
-8.45079e-19
2.29963e-19
-3.59663e-20
2.47725e-20
1.10822e-20
2.03315e-20
2.2697e-20
1.53003e-20
9.40051e-21
1.12292e-20
1.02814e-20
7.67403e-21
1.35976e-20
3.55645e-21
2.69854e-15
-1.15517e-15
2.74077e-16
-6.49723e-17
1.54654e-17
-3.62014e-18
8.91321e-19
-1.84521e-19
6.85259e-20
6.86612e-21
1.34432e-20
5.14756e-21
4.91429e-21
1.50649e-20
1.23848e-20
1.21925e-20
2.4951e-21
3.77952e-21
1.42844e-20
2.83105e-21
-2.69399e-15
1.15334e-15
-2.7356e-16
6.49383e-17
-1.53647e-17
3.68019e-18
-8.42452e-19
2.22429e-19
-2.62042e-20
3.45736e-20
1.10331e-20
5.68064e-21
2.83622e-21
1.21664e-20
1.51013e-20
9.22159e-21
-3.25106e-22
2.2609e-21
1.11273e-20
1.47214e-21
2.68968e-15
-1.1514e-15
2.73201e-16
-6.47641e-17
1.53955e-17
-3.63224e-18
8.88272e-19
-1.79403e-19
6.78263e-20
4.89386e-21
1.54751e-20
6.19085e-21
8.83986e-21
6.4806e-21
7.0057e-21
3.37914e-21
3.06663e-21
5.94767e-21
5.86992e-21
-2.22445e-23
-2.686e-15
1.14993e-15
-2.72742e-16
6.47495e-17
-1.53221e-17
3.66079e-18
-8.42681e-19
2.29863e-19
-2.95573e-20
2.50328e-20
8.67555e-21
9.06466e-21
3.54554e-21
2.92351e-21
-2.83844e-21
-1.94831e-21
6.80564e-21
7.84681e-21
5.9855e-21
1.09384e-21
2.68187e-15
-1.14811e-15
2.72463e-16
-6.45932e-17
1.53598e-17
-3.61579e-18
8.82401e-19
-1.91875e-19
6.02113e-20
-2.51123e-21
1.2289e-20
9.81637e-21
3.47491e-21
4.41743e-22
1.71351e-21
2.81893e-22
1.68127e-21
6.02987e-21
1.10682e-20
5.34417e-22
-2.67914e-15
1.14713e-15
-2.71947e-16
6.45337e-17
-1.52684e-17
3.64041e-18
-8.46886e-19
2.09968e-19
-4.4198e-20
1.05408e-20
-7.97294e-22
7.35425e-21
4.77718e-21
4.61309e-21
2.71831e-21
-1.4086e-21
6.72208e-22
3.50664e-21
8.39035e-21
6.06122e-22
2.6729e-15
-1.14454e-15
2.71622e-16
-6.44432e-17
1.53085e-17
-3.62593e-18
8.66397e-19
-2.01311e-19
4.99374e-20
-1.39811e-20
1.48443e-21
1.73335e-21
4.21044e-21
4.10605e-21
-2.2396e-21
-4.72156e-21
1.49156e-21
2.52167e-21
1.52098e-21
7.79358e-22
)
;

boundaryField
{
    movingWall
    {
        type            zeroGradient;
    }
    fixedWalls
    {
        type            zeroGradient;
    }
    frontAndBack
    {
        type            empty;
    }
}


// ************************************************************************* //
