/*--------------------------------*- C++ -*----------------------------------*\
| =========                 |                                                 |
| \\      /  F ield         | OpenFOAM: The Open Source CFD Toolbox           |
|  \\    /   O peration     | Version:  2506                                  |
|   \\  /    A nd           | Website:  www.openfoam.com                      |
|    \\/     M anipulation  |                                                 |
\*---------------------------------------------------------------------------*/
FoamFile
{
    version     2.0;
    format      ascii;
    arch        "LSB;label=32;scalar=64";
    class       volScalarField;
    location    "5";
    object      initialResidual:k;
}
// * * * * * * * * * * * * * * * * * * * * * * * * * * * * * * * * * * * * * //

dimensions      [0 0 0 0 0 0 0];

internalField   nonuniform List<scalar> 
400
(
-2.03014e-12
-2.03051e-12
-2.03046e-12
-2.03042e-12
-2.03033e-12
-2.03038e-12
-2.03046e-12
-2.03035e-12
-2.03055e-12
-2.03014e-12
-2.03086e-12
-2.02992e-12
-2.03073e-12
-2.02999e-12
-2.03061e-12
-2.03019e-12
-2.03045e-12
-2.03031e-12
-2.03037e-12
-2.03035e-12
-2.45028e-12
-2.45298e-12
-2.44722e-12
-2.45433e-12
-2.44486e-12
-2.45681e-12
-2.44181e-12
-2.45665e-12
-2.4408e-12
-2.45433e-12
-2.44186e-12
-2.45212e-12
-2.44306e-12
-2.45152e-12
-2.44347e-12
-2.45051e-12
-2.44446e-12
-2.44756e-12
-2.44654e-12
-2.44713e-12
-2.97493e-12
-2.9689e-12
-2.97872e-12
-2.9735e-12
-2.9744e-12
-2.97571e-12
-2.97015e-12
-2.98262e-12
-2.9631e-12
-2.98023e-12
-2.96343e-12
-2.97863e-12
-2.96406e-12
-2.97693e-12
-2.96511e-12
-2.97452e-12
-2.96722e-12
-2.97092e-12
-2.96989e-12
-2.97052e-12
-3.38571e-12
-3.37923e-12
-3.39009e-12
-3.38843e-12
-3.38107e-12
-3.39292e-12
-3.37522e-12
-3.392e-12
-3.37344e-12
-3.39163e-12
-3.37217e-12
-3.39099e-12
-3.37162e-12
-3.38795e-12
-3.37366e-12
-3.38442e-12
-3.3767e-12
-3.38079e-12
-3.37958e-12
-3.38029e-12
-3.64574e-12
-3.64396e-12
-3.64587e-12
-3.65433e-12
-3.63683e-12
-3.65096e-12
-3.63585e-12
-3.64935e-12
-3.63503e-12
-3.64945e-12
-3.6336e-12
-3.65382e-12
-3.62916e-12
-3.65091e-12
-3.63007e-12
-3.64512e-12
-3.63486e-12
-3.64021e-12
-3.63897e-12
-3.63979e-12
-3.79514e-12
-3.78604e-12
-3.80128e-12
-3.79875e-12
-3.78926e-12
-3.80486e-12
-3.7811e-12
-3.80584e-12
-3.77758e-12
-3.80294e-12
-3.7782e-12
-3.79981e-12
-3.77973e-12
-3.79742e-12
-3.7812e-12
-3.7944e-12
-3.78386e-12
-3.78916e-12
-3.78769e-12
-3.78859e-12
-3.87897e-12
-3.86835e-12
-3.88782e-12
-3.87622e-12
-3.87707e-12
-3.89099e-12
-3.86332e-12
-3.88665e-12
-3.86323e-12
-3.88605e-12
-3.86224e-12
-3.88499e-12
-3.86206e-12
-3.88202e-12
-3.86399e-12
-3.87796e-12
-3.86728e-12
-3.87283e-12
-3.87111e-12
-3.8721e-12
-3.92931e-12
-3.90366e-12
-3.9488e-12
-3.92555e-12
-3.92952e-12
-3.92383e-12
-3.92681e-12
-3.92365e-12
-3.92575e-12
-3.92371e-12
-3.92464e-12
-3.92268e-12
-3.92376e-12
-3.92241e-12
-3.9228e-12
-3.92215e-12
-3.92171e-12
-3.92174e-12
-3.92165e-12
-3.92162e-12
-3.96227e-12
-3.94884e-12
-3.97279e-12
-3.95782e-12
-3.96225e-12
-3.95702e-12
-3.96012e-12
-3.95781e-12
-3.95787e-12
-3.96622e-12
-3.95046e-12
-3.96339e-12
-3.94971e-12
-3.96178e-12
-3.94987e-12
-3.96021e-12
-3.95098e-12
-3.95539e-12
-3.95428e-12
-3.95499e-12
-3.98903e-12
-3.99077e-12
-3.98585e-12
-3.98861e-12
-3.98543e-12
-3.98888e-12
-3.98252e-12
-3.99251e-12
-3.97741e-12
-3.99521e-12
-3.97312e-12
-3.99095e-12
-3.97542e-12
-3.98639e-12
-3.97805e-12
-3.98518e-12
-3.97818e-12
-3.98181e-12
-3.98082e-12
-3.9815e-12
-4.0128e-12
-4.0238e-12
-4.00334e-12
-4.01717e-12
-4.00482e-12
-4.0212e-12
-3.99942e-12
-4.02788e-12
-3.99144e-12
-4.02076e-12
-3.99679e-12
-4.0092e-12
-4.00563e-12
-4.00377e-12
-4.00891e-12
-4.00556e-12
-4.00619e-12
-4.00692e-12
-4.00502e-12
-4.0059e-12
-4.03731e-12
-4.04733e-12
-4.02872e-12
-4.04611e-12
-4.02754e-12
-4.0485e-12
-4.02302e-12
-4.04505e-12
-4.02375e-12
-4.04045e-12
-4.02641e-12
-4.02889e-12
-4.03604e-12
-4.02792e-12
-4.0328e-12
-4.03002e-12
-4.03139e-12
-4.03189e-12
-4.03014e-12
-4.03071e-12
-4.06543e-12
-4.06368e-12
-4.06354e-12
-4.07608e-12
-4.05178e-12
-4.07653e-12
-4.048e-12
-4.07524e-12
-4.04669e-12
-4.06861e-12
-4.05007e-12
-4.06729e-12
-4.05034e-12
-4.06615e-12
-4.05057e-12
-4.06372e-12
-4.05257e-12
-4.05822e-12
-4.05644e-12
-4.05747e-12
-4.09634e-12
-4.06476e-12
-4.11569e-12
-4.09269e-12
-4.09502e-12
-4.09156e-12
-4.09237e-12
-4.09063e-12
-4.08948e-12
-4.10523e-12
-4.07771e-12
-4.10075e-12
-4.0777e-12
-4.09501e-12
-4.08094e-12
-4.09239e-12
-4.0833e-12
-4.08802e-12
-4.0865e-12
-4.08736e-12
-4.13014e-12
-4.10021e-12
-4.15153e-12
-4.12665e-12
-4.12979e-12
-4.12499e-12
-4.12665e-12
-4.12391e-12
-4.12606e-12
-4.12309e-12
-4.12482e-12
-4.12236e-12
-4.12382e-12
-4.12291e-12
-4.12199e-12
-4.12329e-12
-4.12064e-12
-4.12166e-12
-4.12132e-12
-4.12147e-12
-4.16892e-12
-4.15189e-12
-4.18259e-12
-4.16425e-12
-4.16846e-12
-4.16375e-12
-4.16665e-12
-4.16371e-12
-4.16429e-12
-4.17034e-12
-4.15806e-12
-4.1706e-12
-4.15495e-12
-4.1684e-12
-4.15519e-12
-4.16655e-12
-4.15653e-12
-4.16136e-12
-4.16011e-12
-4.16089e-12
-4.21515e-12
-4.2114e-12
-4.21598e-12
-4.21028e-12
-4.21396e-12
-4.20903e-12
-4.2125e-12
-4.2077e-12
-4.21182e-12
-4.20532e-12
-4.21023e-12
-4.20572e-12
-4.20879e-12
-4.20545e-12
-4.20749e-12
-4.20699e-12
-4.20614e-12
-4.20621e-12
-4.20576e-12
-4.20588e-12
-4.26217e-12
-4.25071e-12
-4.27064e-12
-4.25878e-12
-4.26221e-12
-4.25598e-12
-4.26051e-12
-4.25594e-12
-4.25742e-12
-4.26279e-12
-4.25116e-12
-4.2646e-12
-4.2473e-12
-4.26049e-12
-4.24898e-12
-4.25836e-12
-4.25043e-12
-4.25456e-12
-4.25294e-12
-4.25384e-12
-4.30525e-12
-4.31267e-12
-4.29983e-12
-4.29788e-12
-4.30621e-12
-4.29948e-12
-4.30333e-12
-4.29968e-12
-4.30145e-12
-4.29914e-12
-4.30069e-12
-4.29695e-12
-4.29972e-12
-4.29953e-12
-4.29697e-12
-4.29738e-12
-4.29661e-12
-4.29725e-12
-4.29671e-12
-4.29696e-12
-4.32186e-12
-4.32779e-12
-4.31751e-12
-4.3304e-12
-4.31497e-12
-4.33197e-12
-4.31481e-12
-4.3308e-12
-4.31689e-12
-4.32805e-12
-4.32014e-12
-4.32475e-12
-4.32273e-12
-4.32324e-12
-4.32328e-12
-4.32328e-12
-4.32328e-12
-4.32327e-12
-4.32327e-12
-4.32327e-12
)
;

boundaryField
{
    movingWall
    {
        type            zeroGradient;
    }
    fixedWalls
    {
        type            zeroGradient;
    }
    frontAndBack
    {
        type            empty;
    }
}


// ************************************************************************* //
