/*--------------------------------*- C++ -*----------------------------------*\
| =========                 |                                                 |
| \\      /  F ield         | OpenFOAM: The Open Source CFD Toolbox           |
|  \\    /   O peration     | Version:  2506                                  |
|   \\  /    A nd           | Website:  www.openfoam.com                      |
|    \\/     M anipulation  |                                                 |
\*---------------------------------------------------------------------------*/
FoamFile
{
    version     2.0;
    format      ascii;
    arch        "LSB;label=32;scalar=64";
    class       volScalarField;
    location    "5";
    object      initialResidual:Ux;
}
// * * * * * * * * * * * * * * * * * * * * * * * * * * * * * * * * * * * * * //

dimensions      [0 0 0 0 0 0 0];

internalField   nonuniform List<scalar> 
400
(
5.09146e-18
-5.12963e-18
2.03288e-18
-7.11508e-19
2.84603e-19
-3.38813e-20
8.13152e-20
2.03288e-20
3.38813e-20
-6.77626e-21
3.38813e-20
0
1.35525e-20
4.06576e-20
-6.77626e-21
2.71051e-20
-6.77626e-21
2.71051e-20
1.35525e-20
-1.35525e-20
-5.80975e-18
2.64274e-18
-6.50521e-19
2.77827e-19
-6.77626e-21
4.06576e-20
4.06576e-20
0
-1.35525e-20
2.03288e-20
3.38813e-20
2.03288e-20
-2.03288e-20
2.71051e-20
1.35525e-20
6.77626e-21
6.77626e-21
-1.35525e-20
2.71051e-20
-1.35525e-20
1.72788e-17
-6.70172e-18
2.08031e-18
-5.28549e-19
2.30393e-19
-6.77626e-21
2.03288e-20
4.74338e-20
2.03288e-20
-6.77626e-21
6.77626e-21
2.03288e-20
1.35525e-20
3.38813e-20
-2.71051e-20
0
3.38813e-20
-6.77626e-21
0
-2.71051e-20
-2.00373e-17
8.05698e-18
-2.23617e-18
6.77626e-19
-9.48677e-20
6.77626e-20
2.03288e-20
2.03288e-20
-6.77626e-21
1.35525e-20
0
3.38813e-20
3.38813e-20
-2.03288e-20
2.03288e-20
-6.77626e-21
-1.35525e-20
2.03288e-20
0
0
2.03065e-17
-7.89435e-18
2.35136e-18
-6.03087e-19
1.55854e-19
-2.03288e-20
4.74338e-20
1.35525e-20
1.35525e-20
0
2.71051e-20
2.71051e-20
-6.77626e-21
2.03288e-20
-1.35525e-20
-6.77626e-21
2.03288e-20
0
0
-2.71051e-20
-1.99408e-17
7.95533e-18
-2.27682e-18
6.43745e-19
-1.28749e-19
6.09864e-20
1.35525e-20
5.42101e-20
2.03288e-20
2.71051e-20
1.35525e-20
3.38813e-20
-1.35525e-20
1.35525e-20
-2.03288e-20
0
0
2.71051e-20
-2.03288e-20
-1.35525e-20
1.85685e-17
-7.20317e-18
2.09387e-18
-5.42101e-19
1.42302e-19
-1.35525e-20
4.06576e-20
-6.77626e-21
-2.03288e-20
6.77626e-21
1.35525e-20
1.35525e-20
4.06576e-20
6.77626e-21
-1.35525e-20
-6.77626e-21
0
4.74338e-20
-6.77626e-21
0
-1.71e-17
6.76271e-18
-1.95834e-18
5.75982e-19
-1.21973e-19
4.74338e-20
6.77626e-21
6.77626e-21
2.71051e-20
6.77626e-21
-6.77626e-21
0
2.71051e-20
2.03288e-20
6.77626e-21
-2.03288e-20
3.38813e-20
-4.06576e-20
6.77626e-21
0
1.51273e-17
-5.88857e-18
1.66018e-18
-4.94667e-19
1.42302e-19
-2.71051e-20
-6.77626e-21
6.77626e-21
0
4.06576e-20
-2.03288e-20
-2.03288e-20
0
2.03288e-20
4.06576e-20
1.35525e-20
0
0
-1.35525e-20
1.35525e-20
-1.33526e-17
5.34647e-18
-1.55176e-18
4.20128e-19
-8.13152e-20
1.35525e-20
-2.03288e-20
0
-2.03288e-20
6.77626e-21
-1.35525e-20
-6.77626e-21
2.71051e-20
2.03288e-20
1.35525e-20
-1.35525e-20
0
1.35525e-20
-2.03288e-20
0
1.16265e-17
-4.46556e-18
1.25361e-18
-3.25261e-19
7.45389e-20
-2.03288e-20
-6.77626e-21
0
6.77626e-21
-4.74338e-20
1.35525e-20
1.35525e-20
-1.35525e-20
0
1.35525e-20
-1.35525e-20
3.38813e-20
-2.03288e-20
0
0
-9.98443e-18
3.97089e-18
-1.13841e-18
3.04932e-19
-8.13152e-20
6.77626e-21
-1.35525e-20
6.77626e-21
1.35525e-20
-3.38813e-20
3.38813e-20
0
-1.35525e-20
0
6.77626e-21
6.77626e-21
-2.03288e-20
2.03288e-20
6.77626e-21
-2.71051e-20
8.79212e-18
-3.39491e-18
9.28348e-19
-2.71051e-19
6.77626e-20
-4.06576e-20
-2.71051e-20
-6.77626e-21
0
-6.77626e-21
6.77626e-21
-2.03288e-20
-2.03288e-20
2.71051e-20
-1.35525e-20
0
-1.35525e-20
2.03288e-20
-6.77626e-21
-1.35525e-20
-7.46734e-18
2.97478e-18
-8.40257e-19
2.37169e-19
-6.09864e-20
6.77626e-21
-2.03288e-20
-6.77626e-21
-2.03288e-20
6.77626e-21
-1.35525e-20
6.77626e-21
-6.77626e-21
2.03288e-20
0
-6.77626e-21
-1.35525e-20
-6.77626e-21
-1.35525e-20
0
6.84098e-18
-2.6563e-18
6.97955e-19
-2.10064e-19
4.74338e-20
-2.03288e-20
-2.03288e-20
-6.77626e-21
-1.35525e-20
2.71051e-20
2.71051e-20
-1.35525e-20
-2.71051e-20
-1.35525e-20
-1.35525e-20
-6.77626e-21
-6.77626e-21
-1.35525e-20
6.77626e-21
-1.35525e-20
-5.68841e-18
2.27005e-18
-5.96311e-19
1.42302e-19
-4.74338e-20
-1.35525e-20
-2.03288e-20
0
-2.71051e-20
-2.03288e-20
0
-2.03288e-20
0
-6.77626e-21
0
2.03288e-20
-6.77626e-21
-5.42101e-20
6.77626e-21
0
5.69839e-18
-2.18196e-18
5.6243e-19
-1.96512e-19
-1.35525e-20
-2.71051e-20
-4.06576e-20
-4.74338e-20
1.35525e-20
1.35525e-20
-2.03288e-20
-1.35525e-20
-6.77626e-21
0
6.77626e-21
-2.71051e-20
0
1.35525e-20
0
-1.35525e-20
-4.04604e-18
1.64663e-18
-4.67562e-19
6.77626e-20
-8.13152e-20
-2.71051e-20
-1.35525e-20
-2.71051e-20
0
2.03288e-20
-1.35525e-20
-2.03288e-20
-1.35525e-20
-6.77626e-21
-6.77626e-21
-1.35525e-20
0
-6.77626e-21
-6.77626e-21
-1.35525e-20
5.57049e-18
-2.08031e-18
5.35325e-19
-2.37169e-19
6.77626e-21
-5.42101e-20
-2.71051e-20
-4.06576e-20
-2.71051e-20
-1.35525e-20
-1.35525e-20
1.35525e-20
-1.35525e-20
-6.77626e-21
-6.77626e-21
2.03288e-20
0
-6.77626e-21
6.77626e-21
-1.35525e-20
2.73083e-18
-4.1403e-18
1.57887e-18
-7.52165e-19
1.82959e-19
-1.01644e-19
0
0
4.74338e-20
-6.77626e-21
-6.77626e-21
-2.03288e-20
-6.77626e-21
0
0
-6.77626e-21
0
2.03288e-20
0
1.35525e-20
)
;

boundaryField
{
    movingWall
    {
        type            zeroGradient;
    }
    fixedWalls
    {
        type            zeroGradient;
    }
    frontAndBack
    {
        type            empty;
    }
}


// ************************************************************************* //
