/*--------------------------------*- C++ -*----------------------------------*\
| =========                 |                                                 |
| \\      /  F ield         | OpenFOAM: The Open Source CFD Toolbox           |
|  \\    /   O peration     | Version:  2506                                  |
|   \\  /    A nd           | Website:  www.openfoam.com                      |
|    \\/     M anipulation  |                                                 |
\*---------------------------------------------------------------------------*/
FoamFile
{
    version     2.0;
    format      ascii;
    arch        "LSB;label=32;scalar=64";
    class       volScalarField;
    location    "5";
    object      initialResidual:p;
}
// * * * * * * * * * * * * * * * * * * * * * * * * * * * * * * * * * * * * * //

dimensions      [0 0 0 0 0 0 0];

internalField   nonuniform List<scalar> 
400
(
5.01469e-19
-5.46507e-19
5.40469e-19
-1.73841e-19
6.57589e-20
-1.39085e-20
-1.01355e-21
-2.59855e-20
1.11251e-20
1.84806e-20
-6.54116e-21
3.85629e-21
6.68235e-21
5.819e-21
-1.23196e-20
-6.08738e-21
-1.82886e-21
7.53268e-21
-9.9303e-21
6.77202e-21
-1.08498e-19
8.71939e-19
-2.35309e-19
4.22158e-20
-2.88668e-20
5.78201e-21
-2.91481e-21
-2.85838e-21
2.39983e-20
-4.02428e-21
-6.58017e-21
-9.77472e-21
1.24194e-20
1.61599e-20
-9.02608e-21
1.52098e-21
7.28342e-21
4.17873e-21
-1.63889e-20
1.35447e-20
5.8292e-19
-2.48819e-18
4.91976e-19
-1.03718e-19
2.88355e-20
-2.39867e-20
1.10883e-20
-2.21211e-21
-9.5931e-21
9.46474e-22
2.57331e-20
6.32584e-21
2.77445e-22
9.72386e-21
-3.59379e-21
-1.80714e-21
2.01544e-21
-1.2491e-20
1.28197e-20
6.77392e-21
-2.84727e-19
2.85057e-18
-5.6962e-19
1.07473e-19
-5.42834e-20
2.82728e-20
-7.41146e-21
-2.24158e-20
-9.62847e-22
-2.13352e-21
2.03925e-20
6.73134e-21
-1.81066e-21
-1.70374e-20
3.01166e-21
-1.21794e-20
3.35973e-21
3.1895e-21
-4.51901e-21
6.76904e-21
4.54177e-19
-2.9757e-18
6.08138e-19
-1.506e-19
4.34568e-20
-1.43464e-20
-4.03945e-21
4.214e-21
1.55247e-20
-7.73604e-21
1.37234e-20
-7.28688e-21
-4.16151e-22
6.55922e-21
-1.77766e-20
1.0368e-20
-1.0871e-20
-9.2012e-21
4.6931e-21
1.35524e-20
-3.45692e-19
2.93311e-18
-6.07054e-19
1.44018e-19
-6.11834e-20
2.36873e-20
-1.43785e-20
7.54334e-21
-9.24886e-21
7.46518e-22
-3.4095e-21
1.24523e-21
-1.16938e-20
3.03366e-21
1.35462e-20
-2.77367e-21
-2.1188e-21
-1.05687e-20
1.27733e-20
6.77056e-21
2.77961e-19
-2.75911e-18
5.68305e-19
-1.33384e-19
4.75637e-20
5.36311e-21
-7.09657e-22
-7.4854e-21
4.64591e-21
-8.12249e-22
2.55561e-20
-5.69472e-21
2.20882e-21
-1.16887e-20
-4.37436e-21
1.61788e-20
5.73196e-21
-2.71834e-21
8.26861e-21
-1.35503e-20
-1.96589e-19
2.45372e-18
-4.90153e-19
1.08221e-19
-3.22836e-20
2.62138e-20
-4.99145e-21
1.19291e-20
-9.03186e-21
-4.23174e-21
-8.49592e-22
-7.8737e-21
-7.36322e-21
-4.76824e-21
-1.50987e-20
9.69809e-21
6.86973e-22
2.14742e-20
-1.5515e-20
-3.52209e-24
4.07612e-20
-2.16318e-18
4.5014e-19
-1.02559e-19
5.39331e-20
-2.41265e-20
2.00182e-20
1.15563e-20
-1.55749e-20
-3.55212e-21
-8.95723e-21
6.46853e-21
2.18009e-20
-9.29849e-21
-1.04613e-20
-9.86078e-21
-2.17049e-20
7.74595e-21
-2.08801e-21
6.78054e-21
-6.82031e-21
1.82701e-18
-3.71992e-19
8.19891e-20
-5.16177e-20
2.59554e-22
1.36373e-20
-2.19676e-20
3.03367e-20
-1.08632e-21
-7.82827e-21
4.03387e-21
2.05436e-20
-9.0939e-21
-2.00853e-21
1.19981e-20
3.59447e-21
-1.34797e-20
4.86394e-21
-6.77721e-21
-9.47901e-20
-1.58517e-18
3.25364e-19
-6.7808e-20
2.44176e-20
-2.95891e-20
1.90717e-20
-1.08331e-20
-1.24755e-20
2.49357e-21
1.47819e-20
-1.80519e-20
2.35367e-21
-4.21731e-21
-2.36532e-22
1.4659e-20
-3.17272e-21
6.0756e-22
-1.02984e-20
5.93037e-24
9.48551e-20
1.32423e-18
-2.77018e-19
5.81574e-20
-1.01604e-20
3.45653e-21
-1.22691e-20
1.10291e-20
-1.15921e-20
1.02989e-21
1.6575e-20
-6.42344e-21
-9.66223e-21
2.06631e-20
-9.14718e-21
-9.11023e-21
-1.70901e-21
1.25844e-20
6.01992e-21
6.77788e-21
-1.76125e-19
-1.12581e-18
2.26628e-19
-3.35072e-20
2.2879e-20
-1.7484e-20
1.32124e-20
6.38534e-21
-1.26994e-20
-2.11583e-20
-1.52375e-21
-2.27378e-20
-6.34097e-21
1.18738e-20
-4.05356e-21
-1.11947e-20
5.68048e-21
9.29493e-22
8.40494e-21
-6.76943e-21
1.55866e-19
9.45242e-19
-1.96116e-19
4.03482e-20
-1.94739e-20
1.30718e-20
-1.18025e-20
4.0511e-21
-1.30604e-21
1.56265e-20
-3.85331e-21
1.48888e-21
-8.17546e-21
-2.38258e-21
1.0826e-20
-1.35993e-20
-3.07755e-21
-3.30472e-21
6.4077e-21
3.73438e-24
-1.69364e-19
-8.72654e-19
1.78061e-19
-2.11552e-20
1.94143e-21
-1.95077e-20
1.45478e-20
6.44038e-21
-3.2552e-21
1.52494e-20
-1.75805e-20
-2.87189e-20
1.5512e-20
9.25512e-21
-5.798e-21
-1.44776e-20
-1.19288e-20
1.12523e-20
1.16584e-20
6.76785e-24
1.55886e-19
7.15332e-19
-1.57274e-19
2.3886e-20
-1.14008e-20
3.40387e-21
-1.95056e-20
6.79984e-21
1.54625e-20
-8.37777e-21
-1.03713e-20
5.94624e-21
3.76293e-21
-3.94801e-21
-4.15295e-21
-4.28919e-21
-7.77981e-21
-1.441e-21
9.15117e-21
5.2423e-24
-1.96481e-19
-6.86187e-19
1.21124e-19
-2.71424e-20
2.35098e-20
1.39042e-20
-3.07337e-21
2.51532e-21
6.42486e-21
-1.0629e-20
-1.28289e-20
1.29459e-20
2.76716e-21
2.02615e-21
1.10001e-22
-1.33685e-22
5.2191e-21
-6.99354e-21
4.31393e-21
6.57749e-24
2.23663e-19
4.73298e-19
-9.27991e-20
-6.91212e-22
3.46611e-21
1.41207e-20
9.82021e-23
9.86029e-22
-7.41303e-21
-8.89503e-21
-7.72088e-21
5.97198e-21
3.68987e-21
4.23031e-22
1.89079e-21
4.07969e-21
-4.18366e-21
-2.86884e-21
6.63535e-21
6.78247e-21
-1.62572e-19
-7.04759e-19
1.38909e-19
-1.99464e-20
1.32227e-20
-7.50915e-21
-6.55733e-21
-4.44319e-21
-5.33853e-21
1.38035e-20
8.86194e-21
-9.22995e-21
-1.11415e-20
1.03426e-20
7.3946e-21
-1.57533e-20
8.5425e-21
-1.74126e-20
-5.39316e-21
6.78216e-21
1.62658e-19
-2.03261e-19
4.40503e-19
-1.28755e-19
6.09987e-20
-2.03237e-20
6.78357e-21
6.78262e-21
6.42961e-24
-1.35464e-20
6.78238e-21
5.95609e-24
5.91238e-24
-6.7705e-21
-6.77085e-21
4.80729e-24
6.78091e-21
5.53038e-24
5.86409e-24
8.50554e-27
)
;

boundaryField
{
    movingWall
    {
        type            zeroGradient;
    }
    fixedWalls
    {
        type            zeroGradient;
    }
    frontAndBack
    {
        type            empty;
    }
}


// ************************************************************************* //
