/*--------------------------------*- C++ -*----------------------------------*\
| =========                 |                                                 |
| \\      /  F ield         | OpenFOAM: The Open Source CFD Toolbox           |
|  \\    /   O peration     | Version:  2506                                  |
|   \\  /    A nd           | Website:  www.openfoam.com                      |
|    \\/     M anipulation  |                                                 |
\*---------------------------------------------------------------------------*/
FoamFile
{
    version     2.0;
    format      ascii;
    arch        "LSB;label=32;scalar=64";
    class       volScalarField;
    location    "5";
    object      initialResidual:epsilon;
}
// * * * * * * * * * * * * * * * * * * * * * * * * * * * * * * * * * * * * * //

dimensions      [0 0 0 0 0 0 0];

internalField   nonuniform List<scalar> 
400
(
0
0
0
0
0
0
0
0
0
0
0
0
0
0
0
0
0
0
0
0
0
-2.29917e-12
-2.28636e-12
-2.29098e-12
-2.29924e-12
-2.30025e-12
-2.30588e-12
-2.30812e-12
-2.31306e-12
-2.31593e-12
-2.32056e-12
-2.32372e-12
-2.32836e-12
-2.33152e-12
-2.33639e-12
-2.33937e-12
-2.34459e-12
-2.34719e-12
-4.69581e-12
0
0
-2.93567e-12
-2.91769e-12
-2.92424e-12
-2.93585e-12
-2.93715e-12
-2.94496e-12
-2.94802e-12
-2.95483e-12
-2.95876e-12
-2.96511e-12
-2.96943e-12
-2.97578e-12
-2.98006e-12
-2.98674e-12
-2.99074e-12
-2.99789e-12
-3.00131e-12
-6.00945e-12
0
0
-3.47601e-12
-3.45511e-12
-3.46301e-12
-3.47718e-12
-3.47886e-12
-3.48853e-12
-3.49234e-12
-3.50078e-12
-3.50568e-12
-3.51355e-12
-3.51894e-12
-3.52682e-12
-3.53216e-12
-3.54046e-12
-3.54545e-12
-3.55432e-12
-3.55863e-12
-7.1254e-12
0
0
-3.83823e-12
-3.81488e-12
-3.82386e-12
-3.83989e-12
-3.84185e-12
-3.85281e-12
-3.85717e-12
-3.86676e-12
-3.87233e-12
-3.88133e-12
-3.88743e-12
-3.89645e-12
-3.90249e-12
-3.91197e-12
-3.91766e-12
-3.92776e-12
-3.93273e-12
-7.87468e-12
0
0
-4.05397e-12
-4.02909e-12
-4.03878e-12
-4.0559e-12
-4.05805e-12
-4.06981e-12
-4.07449e-12
-4.08482e-12
-4.09078e-12
-4.10046e-12
-4.10701e-12
-4.11669e-12
-4.12322e-12
-4.13338e-12
-4.13953e-12
-4.15037e-12
-4.15573e-12
-8.32146e-12
0
0
-4.17736e-12
-4.15234e-12
-4.16222e-12
-4.17986e-12
-4.18217e-12
-4.19437e-12
-4.19924e-12
-4.20997e-12
-4.21621e-12
-4.22624e-12
-4.23309e-12
-4.24312e-12
-4.24997e-12
-4.2605e-12
-4.26693e-12
-4.27819e-12
-4.28379e-12
-8.57803e-12
0
0
-4.25125e-12
-4.22591e-12
-4.23602e-12
-4.25399e-12
-4.25644e-12
-4.2688e-12
-4.27393e-12
-4.28478e-12
-4.29126e-12
-4.30146e-12
-4.30851e-12
-4.31874e-12
-4.32576e-12
-4.33653e-12
-4.34312e-12
-4.35464e-12
-4.36039e-12
-8.73148e-12
0
0
-4.30116e-12
-4.27524e-12
-4.28553e-12
-4.30379e-12
-4.30628e-12
-4.31885e-12
-4.32402e-12
-4.33509e-12
-4.34159e-12
-4.35204e-12
-4.35911e-12
-4.36957e-12
-4.37664e-12
-4.38761e-12
-4.39429e-12
-4.40598e-12
-4.41184e-12
-8.83453e-12
0
0
-4.34044e-12
-4.31413e-12
-4.32453e-12
-4.34308e-12
-4.34551e-12
-4.3583e-12
-4.36346e-12
-4.37472e-12
-4.38127e-12
-4.39183e-12
-4.399e-12
-4.40957e-12
-4.41675e-12
-4.42781e-12
-4.43461e-12
-4.4464e-12
-4.45235e-12
-8.91566e-12
0
0
-4.37584e-12
-4.34995e-12
-4.36024e-12
-4.3789e-12
-4.38137e-12
-4.39431e-12
-4.39949e-12
-4.4109e-12
-4.41747e-12
-4.42819e-12
-4.43542e-12
-4.44609e-12
-4.45337e-12
-4.46451e-12
-4.47141e-12
-4.48329e-12
-4.48934e-12
-8.98973e-12
0
0
-4.41225e-12
-4.38584e-12
-4.39634e-12
-4.41524e-12
-4.41772e-12
-4.43079e-12
-4.43602e-12
-4.44753e-12
-4.4542e-12
-4.465e-12
-4.47229e-12
-4.48312e-12
-4.49041e-12
-4.50173e-12
-4.50867e-12
-4.52069e-12
-4.52681e-12
-9.06475e-12
0
0
-4.45133e-12
-4.42466e-12
-4.4353e-12
-4.45436e-12
-4.45688e-12
-4.47009e-12
-4.47539e-12
-4.48703e-12
-4.49376e-12
-4.50469e-12
-4.51206e-12
-4.52301e-12
-4.53037e-12
-4.54186e-12
-4.54881e-12
-4.56104e-12
-4.56717e-12
-9.14562e-12
0
0
-4.49561e-12
-4.46754e-12
-4.47878e-12
-4.49805e-12
-4.5007e-12
-4.51395e-12
-4.51943e-12
-4.5311e-12
-4.538e-12
-4.54903e-12
-4.55653e-12
-4.56757e-12
-4.57506e-12
-4.58664e-12
-4.59372e-12
-4.60607e-12
-4.6123e-12
-9.23599e-12
0
0
-4.54504e-12
-4.51742e-12
-4.52858e-12
-4.54801e-12
-4.55073e-12
-4.56414e-12
-4.5697e-12
-4.58153e-12
-4.58855e-12
-4.59967e-12
-4.60732e-12
-4.61848e-12
-4.62611e-12
-4.63783e-12
-4.64503e-12
-4.65755e-12
-4.66386e-12
-9.33924e-12
0
0
-4.60221e-12
-4.575e-12
-4.58605e-12
-4.60569e-12
-4.60848e-12
-4.6221e-12
-4.62775e-12
-4.63979e-12
-4.64686e-12
-4.65823e-12
-4.66593e-12
-4.67734e-12
-4.68503e-12
-4.69698e-12
-4.70427e-12
-4.71698e-12
-4.72342e-12
-9.45848e-12
0
0
-4.6678e-12
-4.64021e-12
-4.65139e-12
-4.67141e-12
-4.67419e-12
-4.6881e-12
-4.69381e-12
-4.70607e-12
-4.7133e-12
-4.72479e-12
-4.73272e-12
-4.74422e-12
-4.75216e-12
-4.76422e-12
-4.77171e-12
-4.7846e-12
-4.79119e-12
-9.59416e-12
0
0
-4.73714e-12
-4.70952e-12
-4.72088e-12
-4.74107e-12
-4.74401e-12
-4.75808e-12
-4.76395e-12
-4.77639e-12
-4.78372e-12
-4.7955e-12
-4.80347e-12
-4.8153e-12
-4.82327e-12
-4.83566e-12
-4.84321e-12
-4.85639e-12
-4.86308e-12
-9.73809e-12
0
0
-4.81844e-12
-4.78487e-12
-4.7968e-12
-4.81836e-12
-4.82042e-12
-4.83474e-12
-4.84027e-12
-4.85265e-12
-4.86001e-12
-4.8715e-12
-4.87972e-12
-4.8912e-12
-4.89949e-12
-4.91162e-12
-4.91946e-12
-4.93251e-12
-4.93934e-12
-9.8788e-12
0
0
0
0
0
0
0
0
0
0
0
0
0
0
0
0
0
0
0
0
0
)
;

boundaryField
{
    movingWall
    {
        type            zeroGradient;
    }
    fixedWalls
    {
        type            zeroGradient;
    }
    frontAndBack
    {
        type            empty;
    }
}


// ************************************************************************* //
