/*--------------------------------*- C++ -*----------------------------------*\
| =========                 |                                                 |
| \\      /  F ield         | OpenFOAM: The Open Source CFD Toolbox           |
|  \\    /   O peration     | Version:  2506                                  |
|   \\  /    A nd           | Website:  www.openfoam.com                      |
|    \\/     M anipulation  |                                                 |
\*---------------------------------------------------------------------------*/
FoamFile
{
    version     2.0;
    format      ascii;
    arch        "LSB;label=32;scalar=64";
    class       volScalarField;
    location    "5";
    object      k;
}
// * * * * * * * * * * * * * * * * * * * * * * * * * * * * * * * * * * * * * //

dimensions      [0 2 -2 0 0 0 0];

internalField   nonuniform List<scalar> 
400
(
1.437e-05
1.437e-05
1.43698e-05
1.437e-05
1.43698e-05
1.43699e-05
1.43697e-05
1.43698e-05
1.43698e-05
1.43698e-05
1.43698e-05
1.43697e-05
1.43697e-05
1.43697e-05
1.43697e-05
1.43697e-05
1.43697e-05
1.43697e-05
1.43697e-05
1.43697e-05
1.57032e-05
1.57032e-05
1.57013e-05
1.57005e-05
1.56993e-05
1.56986e-05
1.56976e-05
1.56969e-05
1.56961e-05
1.56955e-05
1.56948e-05
1.56943e-05
1.56938e-05
1.56935e-05
1.56931e-05
1.56928e-05
1.56926e-05
1.56925e-05
1.56924e-05
1.56924e-05
1.74694e-05
1.74694e-05
1.7467e-05
1.7466e-05
1.74645e-05
1.74636e-05
1.74623e-05
1.74615e-05
1.74604e-05
1.74597e-05
1.74589e-05
1.74583e-05
1.74577e-05
1.74572e-05
1.74568e-05
1.74564e-05
1.74562e-05
1.7456e-05
1.74559e-05
1.74559e-05
1.89575e-05
1.89574e-05
1.89546e-05
1.89535e-05
1.89517e-05
1.89506e-05
1.89491e-05
1.89481e-05
1.89469e-05
1.8946e-05
1.8945e-05
1.89443e-05
1.89436e-05
1.89431e-05
1.89425e-05
1.89422e-05
1.89419e-05
1.89417e-05
1.89415e-05
1.89415e-05
1.99665e-05
1.99664e-05
1.99633e-05
1.9962e-05
1.99601e-05
1.99588e-05
1.99571e-05
1.99561e-05
1.99547e-05
1.99538e-05
1.99526e-05
1.99519e-05
1.9951e-05
1.99504e-05
1.99499e-05
1.99494e-05
1.99491e-05
1.99489e-05
1.99487e-05
1.99487e-05
2.05778e-05
2.05777e-05
2.05743e-05
2.05731e-05
2.05709e-05
2.05696e-05
2.05678e-05
2.05666e-05
2.05652e-05
2.05642e-05
2.0563e-05
2.05622e-05
2.05613e-05
2.05607e-05
2.056e-05
2.05596e-05
2.05592e-05
2.0559e-05
2.05589e-05
2.05588e-05
2.09326e-05
2.09325e-05
2.0929e-05
2.09277e-05
2.09253e-05
2.0924e-05
2.09222e-05
2.0921e-05
2.09195e-05
2.09185e-05
2.09172e-05
2.09164e-05
2.09155e-05
2.09148e-05
2.09141e-05
2.09137e-05
2.09133e-05
2.09131e-05
2.09129e-05
2.09129e-05
2.11435e-05
2.11436e-05
2.11397e-05
2.11386e-05
2.11362e-05
2.11348e-05
2.1133e-05
2.11317e-05
2.11302e-05
2.11291e-05
2.11278e-05
2.1127e-05
2.11259e-05
2.11254e-05
2.11246e-05
2.11243e-05
2.11238e-05
2.11236e-05
2.11234e-05
2.11234e-05
2.12814e-05
2.12814e-05
2.12778e-05
2.12763e-05
2.12742e-05
2.12726e-05
2.12709e-05
2.12694e-05
2.1268e-05
2.12668e-05
2.12656e-05
2.12647e-05
2.12637e-05
2.12631e-05
2.12624e-05
2.12619e-05
2.12615e-05
2.12613e-05
2.12611e-05
2.1261e-05
2.1386e-05
2.13859e-05
2.13824e-05
2.13809e-05
2.13786e-05
2.13772e-05
2.13752e-05
2.1374e-05
2.13723e-05
2.13713e-05
2.137e-05
2.13691e-05
2.13681e-05
2.13675e-05
2.13667e-05
2.13663e-05
2.13659e-05
2.13657e-05
2.13655e-05
2.13654e-05
2.14784e-05
2.14783e-05
2.14748e-05
2.14732e-05
2.14709e-05
2.14695e-05
2.14675e-05
2.14662e-05
2.14647e-05
2.14636e-05
2.14622e-05
2.14614e-05
2.14603e-05
2.14597e-05
2.14589e-05
2.14585e-05
2.1458e-05
2.14579e-05
2.14577e-05
2.14576e-05
2.15699e-05
2.15698e-05
2.15663e-05
2.15647e-05
2.15624e-05
2.15609e-05
2.15589e-05
2.15577e-05
2.1556e-05
2.1555e-05
2.15535e-05
2.15529e-05
2.15515e-05
2.15512e-05
2.15502e-05
2.155e-05
2.15494e-05
2.15492e-05
2.15491e-05
2.1549e-05
2.16673e-05
2.16672e-05
2.16635e-05
2.1662e-05
2.16597e-05
2.16582e-05
2.16562e-05
2.16549e-05
2.16533e-05
2.16522e-05
2.16509e-05
2.165e-05
2.16489e-05
2.16483e-05
2.16475e-05
2.16471e-05
2.16467e-05
2.16464e-05
2.16463e-05
2.16462e-05
2.17752e-05
2.17751e-05
2.17713e-05
2.17698e-05
2.17676e-05
2.17658e-05
2.17641e-05
2.17625e-05
2.1761e-05
2.17598e-05
2.17585e-05
2.17576e-05
2.17566e-05
2.17559e-05
2.17552e-05
2.17547e-05
2.17543e-05
2.1754e-05
2.17538e-05
2.17538e-05
2.18971e-05
2.18972e-05
2.1893e-05
2.18918e-05
2.18893e-05
2.18877e-05
2.18858e-05
2.18844e-05
2.18828e-05
2.18816e-05
2.18803e-05
2.18793e-05
2.18782e-05
2.18776e-05
2.18768e-05
2.18764e-05
2.18759e-05
2.18757e-05
2.18755e-05
2.18755e-05
2.20356e-05
2.20355e-05
2.20316e-05
2.203e-05
2.20278e-05
2.2026e-05
2.20242e-05
2.20226e-05
2.20211e-05
2.20198e-05
2.20185e-05
2.20176e-05
2.20165e-05
2.20158e-05
2.20151e-05
2.20146e-05
2.20141e-05
2.20139e-05
2.20137e-05
2.20137e-05
2.21889e-05
2.21888e-05
2.21849e-05
2.21834e-05
2.21807e-05
2.21794e-05
2.21771e-05
2.2176e-05
2.2174e-05
2.21731e-05
2.21715e-05
2.21707e-05
2.21695e-05
2.21689e-05
2.2168e-05
2.21677e-05
2.21671e-05
2.21669e-05
2.21668e-05
2.21667e-05
2.23459e-05
2.23458e-05
2.23419e-05
2.23402e-05
2.23378e-05
2.23361e-05
2.23342e-05
2.23326e-05
2.2331e-05
2.23297e-05
2.23284e-05
2.23274e-05
2.23263e-05
2.23256e-05
2.23248e-05
2.23243e-05
2.23239e-05
2.23236e-05
2.23235e-05
2.23234e-05
2.24807e-05
2.24807e-05
2.2477e-05
2.24754e-05
2.24729e-05
2.24714e-05
2.24693e-05
2.24679e-05
2.24662e-05
2.2465e-05
2.24636e-05
2.24627e-05
2.24616e-05
2.24609e-05
2.24601e-05
2.24597e-05
2.24592e-05
2.24589e-05
2.24588e-05
2.24587e-05
2.25394e-05
2.25393e-05
2.25392e-05
2.25392e-05
2.25391e-05
2.25391e-05
2.25391e-05
2.25391e-05
2.2539e-05
2.2539e-05
2.2539e-05
2.2539e-05
2.2539e-05
2.2539e-05
2.2539e-05
2.2539e-05
2.2539e-05
2.2539e-05
2.2539e-05
2.2539e-05
)
;

boundaryField
{
    movingWall
    {
        type            kqRWallFunction;
        value           nonuniform List<scalar> 
20
(
2.25394e-05
2.25393e-05
2.25392e-05
2.25392e-05
2.25391e-05
2.25391e-05
2.25391e-05
2.25391e-05
2.2539e-05
2.2539e-05
2.2539e-05
2.2539e-05
2.2539e-05
2.2539e-05
2.2539e-05
2.2539e-05
2.2539e-05
2.2539e-05
2.2539e-05
2.2539e-05
)
;
    }
    fixedWalls
    {
        type            kqRWallFunction;
        value           nonuniform List<scalar> 
60
(
1.437e-05
1.57032e-05
1.74694e-05
1.89575e-05
1.99665e-05
2.05778e-05
2.09326e-05
2.11435e-05
2.12814e-05
2.1386e-05
2.14784e-05
2.15699e-05
2.16673e-05
2.17752e-05
2.18971e-05
2.20356e-05
2.21889e-05
2.23459e-05
2.24807e-05
2.25394e-05
1.43697e-05
1.56924e-05
1.74559e-05
1.89415e-05
1.99487e-05
2.05588e-05
2.09129e-05
2.11234e-05
2.1261e-05
2.13654e-05
2.14576e-05
2.1549e-05
2.16462e-05
2.17538e-05
2.18755e-05
2.20137e-05
2.21667e-05
2.23234e-05
2.24587e-05
2.2539e-05
1.437e-05
1.437e-05
1.43698e-05
1.437e-05
1.43698e-05
1.43699e-05
1.43697e-05
1.43698e-05
1.43698e-05
1.43698e-05
1.43698e-05
1.43697e-05
1.43697e-05
1.43697e-05
1.43697e-05
1.43697e-05
1.43697e-05
1.43697e-05
1.43697e-05
1.43697e-05
)
;
    }
    frontAndBack
    {
        type            empty;
    }
}


// ************************************************************************* //
