/*--------------------------------*- C++ -*----------------------------------*\
| =========                 |                                                 |
| \\      /  F ield         | OpenFOAM: The Open Source CFD Toolbox           |
|  \\    /   O peration     | Version:  2506                                  |
|   \\  /    A nd           | Website:  www.openfoam.com                      |
|    \\/     M anipulation  |                                                 |
\*---------------------------------------------------------------------------*/
FoamFile
{
    version     2.0;
    format      ascii;
    arch        "LSB;label=32;scalar=64";
    class       volScalarField;
    location    "5";
    object      k2;
}
// * * * * * * * * * * * * * * * * * * * * * * * * * * * * * * * * * * * * * //

dimensions      [0 4 -4 0 0 0 0];

internalField   nonuniform List<scalar> 
400
(
2.07078e-10
2.07078e-10
2.07075e-10
2.07076e-10
2.07074e-10
2.07075e-10
2.07073e-10
2.07074e-10
2.07072e-10
2.07072e-10
2.07072e-10
2.07072e-10
2.07072e-10
2.07071e-10
2.07071e-10
2.07071e-10
2.07071e-10
2.07071e-10
2.07071e-10
2.07071e-10
2.47357e-10
2.47357e-10
2.47298e-10
2.47275e-10
2.47234e-10
2.47213e-10
2.47178e-10
2.4716e-10
2.4713e-10
2.47116e-10
2.47091e-10
2.47079e-10
2.4706e-10
2.47051e-10
2.47038e-10
2.47031e-10
2.47023e-10
2.4702e-10
2.47017e-10
2.47016e-10
3.06215e-10
3.06214e-10
3.06132e-10
3.06098e-10
3.06043e-10
3.06013e-10
3.05965e-10
3.05939e-10
3.05899e-10
3.05878e-10
3.05844e-10
3.05828e-10
3.05802e-10
3.05789e-10
3.0577e-10
3.05762e-10
3.05751e-10
3.05746e-10
3.05742e-10
3.05741e-10
3.60665e-10
3.60663e-10
3.60557e-10
3.60515e-10
3.60443e-10
3.60405e-10
3.60343e-10
3.60311e-10
3.60258e-10
3.60231e-10
3.60188e-10
3.60167e-10
3.60133e-10
3.60118e-10
3.60094e-10
3.60083e-10
3.60069e-10
3.60063e-10
3.60058e-10
3.60056e-10
4.00112e-10
4.00109e-10
3.99985e-10
3.99935e-10
3.9985e-10
3.99807e-10
3.99734e-10
3.99696e-10
3.99634e-10
3.99603e-10
3.99552e-10
3.99527e-10
3.99488e-10
3.99469e-10
3.99441e-10
3.99429e-10
3.99412e-10
3.99405e-10
3.99399e-10
3.99397e-10
4.25e-10
4.24999e-10
4.24862e-10
4.24807e-10
4.24714e-10
4.24666e-10
4.24585e-10
4.24544e-10
4.24476e-10
4.24442e-10
4.24386e-10
4.24359e-10
4.24316e-10
4.24295e-10
4.24265e-10
4.24251e-10
4.24232e-10
4.24225e-10
4.24218e-10
4.24216e-10
4.39789e-10
4.39787e-10
4.39642e-10
4.39584e-10
4.39487e-10
4.39435e-10
4.39351e-10
4.39308e-10
4.39236e-10
4.392e-10
4.39141e-10
4.39113e-10
4.39067e-10
4.39045e-10
4.39013e-10
4.38998e-10
4.38978e-10
4.38971e-10
4.38964e-10
4.38961e-10
4.48701e-10
4.48701e-10
4.48548e-10
4.48491e-10
4.48394e-10
4.48333e-10
4.48257e-10
4.48201e-10
4.48137e-10
4.48091e-10
4.48036e-10
4.48002e-10
4.47957e-10
4.47933e-10
4.479e-10
4.47885e-10
4.47865e-10
4.47857e-10
4.4785e-10
4.47848e-10
4.54578e-10
4.54575e-10
4.54425e-10
4.54361e-10
4.54267e-10
4.54202e-10
4.54126e-10
4.54068e-10
4.54002e-10
4.53957e-10
4.53898e-10
4.53866e-10
4.53819e-10
4.53795e-10
4.53762e-10
4.53746e-10
4.53726e-10
4.53718e-10
4.5371e-10
4.53708e-10
4.59062e-10
4.59057e-10
4.58906e-10
4.58844e-10
4.5874e-10
4.58684e-10
4.58595e-10
4.58547e-10
4.58471e-10
4.58431e-10
4.58369e-10
4.58338e-10
4.58289e-10
4.58266e-10
4.58231e-10
4.58215e-10
4.58195e-10
4.58187e-10
4.5818e-10
4.58177e-10
4.63039e-10
4.63036e-10
4.6288e-10
4.62819e-10
4.62712e-10
4.62658e-10
4.62565e-10
4.62518e-10
4.6244e-10
4.62403e-10
4.62337e-10
4.62307e-10
4.62256e-10
4.62233e-10
4.62197e-10
4.62181e-10
4.62161e-10
4.62153e-10
4.62146e-10
4.62143e-10
4.66998e-10
4.66996e-10
4.66838e-10
4.66776e-10
4.66667e-10
4.66612e-10
4.66517e-10
4.66471e-10
4.6639e-10
4.66353e-10
4.66285e-10
4.66257e-10
4.66202e-10
4.66182e-10
4.66146e-10
4.66129e-10
4.66108e-10
4.661e-10
4.66093e-10
4.6609e-10
4.71227e-10
4.71223e-10
4.71064e-10
4.71001e-10
4.70891e-10
4.70835e-10
4.7074e-10
4.70692e-10
4.70612e-10
4.70573e-10
4.70507e-10
4.70475e-10
4.70425e-10
4.704e-10
4.70364e-10
4.70348e-10
4.70326e-10
4.70318e-10
4.7031e-10
4.70307e-10
4.75932e-10
4.75929e-10
4.75771e-10
4.75699e-10
4.75602e-10
4.75527e-10
4.75448e-10
4.75384e-10
4.75313e-10
4.75266e-10
4.75202e-10
4.75169e-10
4.75117e-10
4.75093e-10
4.75056e-10
4.7504e-10
4.75018e-10
4.75009e-10
4.75001e-10
4.74998e-10
4.81282e-10
4.81281e-10
4.81113e-10
4.81047e-10
4.80941e-10
4.80872e-10
4.80787e-10
4.80725e-10
4.80653e-10
4.80602e-10
4.80543e-10
4.80503e-10
4.80455e-10
4.80427e-10
4.80391e-10
4.80374e-10
4.80352e-10
4.80343e-10
4.80335e-10
4.80332e-10
4.87394e-10
4.87391e-10
4.87223e-10
4.87152e-10
4.87049e-10
4.86975e-10
4.86891e-10
4.86826e-10
4.86754e-10
4.86702e-10
4.86638e-10
4.86602e-10
4.8655e-10
4.86524e-10
4.86486e-10
4.86469e-10
4.86446e-10
4.86437e-10
4.86429e-10
4.86426e-10
4.94209e-10
4.94204e-10
4.94032e-10
4.93965e-10
4.93847e-10
4.93787e-10
4.93685e-10
4.93633e-10
4.93547e-10
4.93504e-10
4.93435e-10
4.93399e-10
4.93346e-10
4.93319e-10
4.93281e-10
4.93263e-10
4.9324e-10
4.93231e-10
4.93223e-10
4.9322e-10
5.01234e-10
5.0123e-10
5.01057e-10
5.00983e-10
5.00871e-10
5.00799e-10
5.00708e-10
5.00642e-10
5.00566e-10
5.00513e-10
5.00446e-10
5.00409e-10
5.00354e-10
5.00327e-10
5.00288e-10
5.00269e-10
5.00246e-10
5.00237e-10
5.00228e-10
5.00225e-10
5.07311e-10
5.07311e-10
5.07138e-10
5.07071e-10
5.06956e-10
5.06889e-10
5.06795e-10
5.06734e-10
5.06655e-10
5.06604e-10
5.06537e-10
5.06499e-10
5.06446e-10
5.06418e-10
5.06379e-10
5.0636e-10
5.06337e-10
5.06327e-10
5.06319e-10
5.06316e-10
5.09964e-10
5.09961e-10
5.09957e-10
5.09958e-10
5.09952e-10
5.09956e-10
5.09949e-10
5.09953e-10
5.09948e-10
5.09951e-10
5.09947e-10
5.09948e-10
5.09947e-10
5.09947e-10
5.09947e-10
5.09947e-10
5.09947e-10
5.09947e-10
5.09947e-10
5.09947e-10
)
;

boundaryField
{
    movingWall
    {
        type            calculated;
        value           nonuniform List<scalar> 
20
(
5.09964e-10
5.09961e-10
5.09957e-10
5.09958e-10
5.09952e-10
5.09956e-10
5.09949e-10
5.09953e-10
5.09948e-10
5.09951e-10
5.09947e-10
5.09948e-10
5.09947e-10
5.09947e-10
5.09947e-10
5.09947e-10
5.09947e-10
5.09947e-10
5.09947e-10
5.09947e-10
)
;
    }
    fixedWalls
    {
        type            calculated;
        value           nonuniform List<scalar> 
60
(
2.07078e-10
2.47357e-10
3.06215e-10
3.60665e-10
4.00112e-10
4.25e-10
4.39789e-10
4.48701e-10
4.54578e-10
4.59062e-10
4.63039e-10
4.66998e-10
4.71227e-10
4.75932e-10
4.81282e-10
4.87394e-10
4.94209e-10
5.01234e-10
5.07311e-10
5.09964e-10
2.07071e-10
2.47016e-10
3.05741e-10
3.60056e-10
3.99397e-10
4.24216e-10
4.38961e-10
4.47848e-10
4.53708e-10
4.58177e-10
4.62143e-10
4.6609e-10
4.70307e-10
4.74998e-10
4.80332e-10
4.86426e-10
4.9322e-10
5.00225e-10
5.06316e-10
5.09947e-10
2.07078e-10
2.07078e-10
2.07075e-10
2.07076e-10
2.07074e-10
2.07075e-10
2.07073e-10
2.07074e-10
2.07072e-10
2.07072e-10
2.07072e-10
2.07072e-10
2.07072e-10
2.07071e-10
2.07071e-10
2.07071e-10
2.07071e-10
2.07071e-10
2.07071e-10
2.07071e-10
)
;
    }
    frontAndBack
    {
        type            empty;
    }
}


// ************************************************************************* //
