/*--------------------------------*- C++ -*----------------------------------*\
| =========                 |                                                 |
| \\      /  F ield         | OpenFOAM: The Open Source CFD Toolbox           |
|  \\    /   O peration     | Version:  2506                                  |
|   \\  /    A nd           | Website:  www.openfoam.com                      |
|    \\/     M anipulation  |                                                 |
\*---------------------------------------------------------------------------*/
FoamFile
{
    version     2.0;
    format      ascii;
    arch        "LSB;label=32;scalar=64";
    class       volScalarField;
    location    "5";
    object      kDiff;
}
// * * * * * * * * * * * * * * * * * * * * * * * * * * * * * * * * * * * * * //

dimensions      [0 2 -2 0 0 0 0];

internalField   nonuniform List<scalar> 
400
(
-4.0519e-08
-4.0465e-08
-4.05679e-08
-4.04305e-08
-4.05814e-08
-4.04333e-08
-4.0566e-08
-4.04605e-08
-4.05314e-08
-4.04924e-08
-4.05124e-08
-4.05011e-08
-4.05064e-08
-4.05014e-08
-4.05059e-08
-4.05027e-08
-4.05047e-08
-4.05035e-08
-4.05043e-08
-4.0504e-08
-4.88648e-08
-4.88784e-08
-4.8818e-08
-4.8909e-08
-4.87722e-08
-4.89339e-08
-4.87181e-08
-4.89344e-08
-4.86962e-08
-4.89098e-08
-4.87084e-08
-4.88786e-08
-4.87293e-08
-4.88599e-08
-4.87374e-08
-4.88419e-08
-4.875e-08
-4.88114e-08
-4.87836e-08
-4.87928e-08
-5.92598e-08
-5.92725e-08
-5.93195e-08
-5.92981e-08
-5.92496e-08
-5.93243e-08
-5.92076e-08
-5.93651e-08
-5.90955e-08
-5.93598e-08
-5.90989e-08
-5.9331e-08
-5.91096e-08
-5.93017e-08
-5.91252e-08
-5.92689e-08
-5.9153e-08
-5.92284e-08
-5.91961e-08
-5.92065e-08
-6.74432e-08
-6.74428e-08
-6.75412e-08
-6.74881e-08
-6.73955e-08
-6.75528e-08
-6.72858e-08
-6.75521e-08
-6.72597e-08
-6.7535e-08
-6.72439e-08
-6.75141e-08
-6.72356e-08
-6.74784e-08
-6.72623e-08
-6.74332e-08
-6.7304e-08
-6.73883e-08
-6.73513e-08
-6.73631e-08
-7.26383e-08
-7.26656e-08
-7.2664e-08
-7.27417e-08
-7.24736e-08
-7.27416e-08
-7.24531e-08
-7.27081e-08
-7.24536e-08
-7.26932e-08
-7.24482e-08
-7.27051e-08
-7.23818e-08
-7.26767e-08
-7.23914e-08
-7.2619e-08
-7.24527e-08
-7.25602e-08
-7.25165e-08
-7.25301e-08
-7.55892e-08
-7.55719e-08
-7.57365e-08
-7.56318e-08
-7.55428e-08
-7.57233e-08
-7.53935e-08
-7.57459e-08
-7.53317e-08
-7.57164e-08
-7.53374e-08
-7.56697e-08
-7.53604e-08
-7.56265e-08
-7.53829e-08
-7.55822e-08
-7.54176e-08
-7.55249e-08
-7.5479e-08
-7.54936e-08
-7.72469e-08
-7.72415e-08
-7.74068e-08
-7.72444e-08
-7.72951e-08
-7.73868e-08
-7.70264e-08
-7.7402e-08
-7.70222e-08
-7.7373e-08
-7.70124e-08
-7.73452e-08
-7.70103e-08
-7.73041e-08
-7.70357e-08
-7.72497e-08
-7.70796e-08
-7.71904e-08
-7.71411e-08
-7.7157e-08
-7.82041e-08
-7.80597e-08
-7.86637e-08
-7.8099e-08
-7.83072e-08
-7.81941e-08
-7.82234e-08
-7.82042e-08
-7.82098e-08
-7.81836e-08
-7.82003e-08
-7.81523e-08
-7.81964e-08
-7.81396e-08
-7.81756e-08
-7.81381e-08
-7.81498e-08
-7.81429e-08
-7.81438e-08
-7.81432e-08
-7.88829e-08
-7.88995e-08
-7.90253e-08
-7.89456e-08
-7.87985e-08
-7.90178e-08
-7.87507e-08
-7.90131e-08
-7.87875e-08
-7.90125e-08
-7.87029e-08
-7.89618e-08
-7.87137e-08
-7.89188e-08
-7.87248e-08
-7.88852e-08
-7.87394e-08
-7.88353e-08
-7.87952e-08
-7.88076e-08
-7.94699e-08
-7.95352e-08
-7.93761e-08
-7.95494e-08
-7.93412e-08
-7.95379e-08
-7.93249e-08
-7.95378e-08
-7.92672e-08
-7.95379e-08
-7.92001e-08
-7.94996e-08
-7.92266e-08
-7.94341e-08
-7.92709e-08
-7.93904e-08
-7.92777e-08
-7.9358e-08
-7.93238e-08
-7.93354e-08
-7.9986e-08
-8.00689e-08
-7.98001e-08
-8.0061e-08
-7.98165e-08
-8.00694e-08
-7.97493e-08
-8.01019e-08
-7.96164e-08
-8.006e-08
-7.96606e-08
-7.99254e-08
-7.97907e-08
-7.98122e-08
-7.98838e-08
-7.97915e-08
-7.98444e-08
-7.98225e-08
-7.98108e-08
-7.9821e-08
-8.04763e-08
-8.0555e-08
-8.03266e-08
-8.0587e-08
-8.02843e-08
-8.05811e-08
-8.02117e-08
-8.05321e-08
-8.02247e-08
-8.04373e-08
-8.0263e-08
-8.02844e-08
-8.04653e-08
-8.01683e-08
-8.04565e-08
-8.02214e-08
-8.03902e-08
-8.02966e-08
-8.0312e-08
-8.03148e-08
-8.09958e-08
-8.10035e-08
-8.10087e-08
-8.10977e-08
-8.07857e-08
-8.11423e-08
-8.07099e-08
-8.11194e-08
-8.06757e-08
-8.10521e-08
-8.0729e-08
-8.10058e-08
-8.07388e-08
-8.09755e-08
-8.07436e-08
-8.09394e-08
-8.07684e-08
-8.08817e-08
-8.0831e-08
-8.08475e-08
-8.14673e-08
-8.13835e-08
-8.18917e-08
-8.15614e-08
-8.1445e-08
-8.16958e-08
-8.13685e-08
-8.16651e-08
-8.14382e-08
-8.16943e-08
-8.12837e-08
-8.16479e-08
-8.12875e-08
-8.15759e-08
-8.13388e-08
-8.1525e-08
-8.13732e-08
-8.1473e-08
-8.14279e-08
-8.14423e-08
-8.2183e-08
-8.2011e-08
-8.27072e-08
-8.20905e-08
-8.22799e-08
-8.22198e-08
-8.21604e-08
-8.22381e-08
-8.21397e-08
-8.22086e-08
-8.21343e-08
-8.21765e-08
-8.21401e-08
-8.21564e-08
-8.21231e-08
-8.21471e-08
-8.2102e-08
-8.21318e-08
-8.21175e-08
-8.21212e-08
-8.29809e-08
-8.29911e-08
-8.31813e-08
-8.30521e-08
-8.28865e-08
-8.31605e-08
-8.28204e-08
-8.31458e-08
-8.28581e-08
-8.31259e-08
-8.28147e-08
-8.30759e-08
-8.27984e-08
-8.30301e-08
-8.28128e-08
-8.2991e-08
-8.28316e-08
-8.2936e-08
-8.28919e-08
-8.29056e-08
-8.39619e-08
-8.39467e-08
-8.39608e-08
-8.39134e-08
-8.3921e-08
-8.38886e-08
-8.3902e-08
-8.38436e-08
-8.39066e-08
-8.37702e-08
-8.39223e-08
-8.37472e-08
-8.39049e-08
-8.37459e-08
-8.38782e-08
-8.37822e-08
-8.38192e-08
-8.37975e-08
-8.38004e-08
-8.38009e-08
-8.48554e-08
-8.48941e-08
-8.49491e-08
-8.49613e-08
-8.47249e-08
-8.50033e-08
-8.46865e-08
-8.49732e-08
-8.47209e-08
-8.49623e-08
-8.46763e-08
-8.49279e-08
-8.46387e-08
-8.48751e-08
-8.46712e-08
-8.48296e-08
-8.46942e-08
-8.47834e-08
-8.47403e-08
-8.4755e-08
-8.57915e-08
-8.58355e-08
-8.56105e-08
-8.57711e-08
-8.56856e-08
-8.57639e-08
-8.5625e-08
-8.57732e-08
-8.55904e-08
-8.57483e-08
-8.55908e-08
-8.56847e-08
-8.56279e-08
-8.56648e-08
-8.55918e-08
-8.56312e-08
-8.56018e-08
-8.5621e-08
-8.5608e-08
-8.56124e-08
-8.61301e-08
-8.61745e-08
-8.61004e-08
-8.61802e-08
-8.60819e-08
-8.61935e-08
-8.60774e-08
-8.6188e-08
-8.60896e-08
-8.61709e-08
-8.61105e-08
-8.61478e-08
-8.61302e-08
-8.61355e-08
-8.61359e-08
-8.61359e-08
-8.61357e-08
-8.61356e-08
-8.61356e-08
-8.61356e-08
)
;

boundaryField
{
    movingWall
    {
        type            calculated;
        value           nonuniform List<scalar> 
20
(
-8.61301e-08
-8.61745e-08
-8.61004e-08
-8.61802e-08
-8.60819e-08
-8.61935e-08
-8.60774e-08
-8.6188e-08
-8.60896e-08
-8.61709e-08
-8.61105e-08
-8.61478e-08
-8.61302e-08
-8.61355e-08
-8.61359e-08
-8.61359e-08
-8.61357e-08
-8.61356e-08
-8.61356e-08
-8.61356e-08
)
;
    }
    fixedWalls
    {
        type            calculated;
        value           nonuniform List<scalar> 
60
(
-4.0519e-08
-4.88648e-08
-5.92598e-08
-6.74432e-08
-7.26383e-08
-7.55892e-08
-7.72469e-08
-7.82041e-08
-7.88829e-08
-7.94699e-08
-7.9986e-08
-8.04763e-08
-8.09958e-08
-8.14673e-08
-8.2183e-08
-8.29809e-08
-8.39619e-08
-8.48554e-08
-8.57915e-08
-8.61301e-08
-4.0504e-08
-4.87928e-08
-5.92065e-08
-6.73631e-08
-7.25301e-08
-7.54936e-08
-7.7157e-08
-7.81432e-08
-7.88076e-08
-7.93354e-08
-7.9821e-08
-8.03148e-08
-8.08475e-08
-8.14423e-08
-8.21212e-08
-8.29056e-08
-8.38009e-08
-8.4755e-08
-8.56124e-08
-8.61356e-08
-4.0519e-08
-4.0465e-08
-4.05679e-08
-4.04305e-08
-4.05814e-08
-4.04333e-08
-4.0566e-08
-4.04605e-08
-4.05314e-08
-4.04924e-08
-4.05124e-08
-4.05011e-08
-4.05064e-08
-4.05014e-08
-4.05059e-08
-4.05027e-08
-4.05047e-08
-4.05035e-08
-4.05043e-08
-4.0504e-08
)
;
    }
    frontAndBack
    {
        type            empty;
    }
}


// ************************************************************************* //
