/*--------------------------------*- C++ -*----------------------------------*\
| =========                 |                                                 |
| \\      /  F ield         | OpenFOAM: The Open Source CFD Toolbox           |
|  \\    /   O peration     | Version:  2506                                  |
|   \\  /    A nd           | Website:  www.openfoam.com                      |
|    \\/     M anipulation  |                                                 |
\*---------------------------------------------------------------------------*/
FoamFile
{
    version     2.0;
    format      ascii;
    arch        "LSB;label=32;scalar=64";
    class       volScalarField;
    location    "5";
    object      kTotal;
}
// * * * * * * * * * * * * * * * * * * * * * * * * * * * * * * * * * * * * * //

dimensions      [0 2 -2 0 0 0 0];

internalField   nonuniform List<scalar> 
400
(
2.87804e-05
2.87804e-05
2.87803e-05
2.87803e-05
2.87801e-05
2.87802e-05
2.87801e-05
2.87801e-05
2.878e-05
2.87801e-05
2.878e-05
2.878e-05
2.878e-05
2.878e-05
2.878e-05
2.878e-05
2.878e-05
2.878e-05
2.878e-05
2.878e-05
3.14552e-05
3.14552e-05
3.14514e-05
3.145e-05
3.14474e-05
3.14461e-05
3.14438e-05
3.14427e-05
3.14408e-05
3.14399e-05
3.14383e-05
3.14375e-05
3.14363e-05
3.14358e-05
3.14349e-05
3.14345e-05
3.1434e-05
3.14338e-05
3.14336e-05
3.14335e-05
3.49981e-05
3.4998e-05
3.49933e-05
3.49914e-05
3.49882e-05
3.49865e-05
3.49838e-05
3.49823e-05
3.498e-05
3.49788e-05
3.49769e-05
3.49759e-05
3.49744e-05
3.49737e-05
3.49726e-05
3.49722e-05
3.49715e-05
3.49713e-05
3.4971e-05
3.4971e-05
3.79824e-05
3.79823e-05
3.79767e-05
3.79745e-05
3.79707e-05
3.79687e-05
3.79654e-05
3.79638e-05
3.7961e-05
3.79596e-05
3.79573e-05
3.79562e-05
3.79544e-05
3.79536e-05
3.79523e-05
3.79518e-05
3.7951e-05
3.79507e-05
3.79504e-05
3.79504e-05
4.00056e-05
4.00055e-05
3.99993e-05
3.99968e-05
3.99926e-05
3.99904e-05
3.99867e-05
3.99849e-05
3.99818e-05
3.99802e-05
3.99777e-05
3.99764e-05
3.99744e-05
3.99735e-05
3.99721e-05
3.99715e-05
3.99706e-05
3.99703e-05
3.997e-05
3.99699e-05
4.12311e-05
4.12311e-05
4.12244e-05
4.12218e-05
4.12172e-05
4.12149e-05
4.1211e-05
4.1209e-05
4.12057e-05
4.12041e-05
4.12014e-05
4.12e-05
4.11979e-05
4.11969e-05
4.11954e-05
4.11948e-05
4.11939e-05
4.11935e-05
4.11932e-05
4.11931e-05
4.19424e-05
4.19423e-05
4.19353e-05
4.19326e-05
4.1928e-05
4.19255e-05
4.19215e-05
4.19194e-05
4.1916e-05
4.19143e-05
4.19115e-05
4.19101e-05
4.19079e-05
4.19069e-05
4.19053e-05
4.19046e-05
4.19037e-05
4.19033e-05
4.1903e-05
4.19029e-05
4.23652e-05
4.23652e-05
4.2358e-05
4.23553e-05
4.23507e-05
4.23478e-05
4.23442e-05
4.23416e-05
4.23386e-05
4.23364e-05
4.23338e-05
4.23322e-05
4.23301e-05
4.23289e-05
4.23274e-05
4.23267e-05
4.23257e-05
4.23253e-05
4.2325e-05
4.23249e-05
4.26418e-05
4.26416e-05
4.26346e-05
4.26316e-05
4.26272e-05
4.26241e-05
4.26205e-05
4.26178e-05
4.26147e-05
4.26126e-05
4.26098e-05
4.26083e-05
4.26061e-05
4.2605e-05
4.26034e-05
4.26027e-05
4.26017e-05
4.26014e-05
4.2601e-05
4.26009e-05
4.28515e-05
4.28513e-05
4.28442e-05
4.28413e-05
4.28365e-05
4.28339e-05
4.28297e-05
4.28275e-05
4.28239e-05
4.28221e-05
4.28192e-05
4.28177e-05
4.28155e-05
4.28144e-05
4.28127e-05
4.2812e-05
4.28111e-05
4.28107e-05
4.28103e-05
4.28102e-05
4.30368e-05
4.30366e-05
4.30294e-05
4.30266e-05
4.30216e-05
4.3019e-05
4.30147e-05
4.30126e-05
4.30089e-05
4.30072e-05
4.30041e-05
4.30027e-05
4.30004e-05
4.29993e-05
4.29976e-05
4.29969e-05
4.29959e-05
4.29956e-05
4.29952e-05
4.29951e-05
4.32204e-05
4.32202e-05
4.32129e-05
4.32101e-05
4.3205e-05
4.32025e-05
4.31981e-05
4.3196e-05
4.31922e-05
4.31905e-05
4.31874e-05
4.31861e-05
4.31835e-05
4.31825e-05
4.31809e-05
4.31801e-05
4.31792e-05
4.31788e-05
4.31784e-05
4.31783e-05
4.34156e-05
4.34154e-05
4.34081e-05
4.34052e-05
4.34001e-05
4.33976e-05
4.33932e-05
4.3391e-05
4.33873e-05
4.33855e-05
4.33824e-05
4.3381e-05
4.33786e-05
4.33775e-05
4.33758e-05
4.33751e-05
4.33741e-05
4.33737e-05
4.33733e-05
4.33732e-05
4.36318e-05
4.36317e-05
4.36244e-05
4.36211e-05
4.36167e-05
4.36133e-05
4.36096e-05
4.36067e-05
4.36034e-05
4.36013e-05
4.35983e-05
4.35968e-05
4.35944e-05
4.35933e-05
4.35916e-05
4.35909e-05
4.35899e-05
4.35895e-05
4.35891e-05
4.3589e-05
4.38763e-05
4.38763e-05
4.38686e-05
4.38657e-05
4.38608e-05
4.38577e-05
4.38538e-05
4.3851e-05
4.38477e-05
4.38454e-05
4.38426e-05
4.38408e-05
4.38386e-05
4.38374e-05
4.38357e-05
4.38349e-05
4.3834e-05
4.38335e-05
4.38332e-05
4.38331e-05
4.41541e-05
4.41539e-05
4.41463e-05
4.41431e-05
4.41384e-05
4.41351e-05
4.41313e-05
4.41283e-05
4.41251e-05
4.41227e-05
4.41198e-05
4.41182e-05
4.41158e-05
4.41146e-05
4.41129e-05
4.41121e-05
4.41111e-05
4.41107e-05
4.41103e-05
4.41102e-05
4.44617e-05
4.44615e-05
4.44538e-05
4.44507e-05
4.44454e-05
4.44427e-05
4.44381e-05
4.44358e-05
4.44319e-05
4.443e-05
4.44269e-05
4.44252e-05
4.44229e-05
4.44216e-05
4.44199e-05
4.44191e-05
4.44181e-05
4.44177e-05
4.44173e-05
4.44172e-05
4.47766e-05
4.47764e-05
4.47687e-05
4.47654e-05
4.47604e-05
4.47572e-05
4.47531e-05
4.47502e-05
4.47467e-05
4.47444e-05
4.47414e-05
4.47397e-05
4.47373e-05
4.47361e-05
4.47343e-05
4.47335e-05
4.47324e-05
4.4732e-05
4.47316e-05
4.47315e-05
4.50472e-05
4.50472e-05
4.50395e-05
4.50365e-05
4.50315e-05
4.50285e-05
4.50243e-05
4.50216e-05
4.50181e-05
4.50158e-05
4.50129e-05
4.50112e-05
4.50088e-05
4.50075e-05
4.50058e-05
4.5005e-05
4.5004e-05
4.50035e-05
4.50032e-05
4.5003e-05
4.51648e-05
4.51647e-05
4.51645e-05
4.51646e-05
4.51643e-05
4.51645e-05
4.51642e-05
4.51644e-05
4.51641e-05
4.51643e-05
4.51641e-05
4.51642e-05
4.51641e-05
4.51641e-05
4.51641e-05
4.51641e-05
4.51641e-05
4.51641e-05
4.51641e-05
4.51641e-05
)
;

boundaryField
{
    movingWall
    {
        type            calculated;
        value           nonuniform List<scalar> 
20
(
4.51648e-05
4.51647e-05
4.51645e-05
4.51646e-05
4.51643e-05
4.51645e-05
4.51642e-05
4.51644e-05
4.51641e-05
4.51643e-05
4.51641e-05
4.51642e-05
4.51641e-05
4.51641e-05
4.51641e-05
4.51641e-05
4.51641e-05
4.51641e-05
4.51641e-05
4.51641e-05
)
;
    }
    fixedWalls
    {
        type            calculated;
        value           nonuniform List<scalar> 
60
(
2.87804e-05
3.14552e-05
3.49981e-05
3.79824e-05
4.00056e-05
4.12311e-05
4.19424e-05
4.23652e-05
4.26418e-05
4.28515e-05
4.30368e-05
4.32204e-05
4.34156e-05
4.36318e-05
4.38763e-05
4.41541e-05
4.44617e-05
4.47766e-05
4.50472e-05
4.51648e-05
2.878e-05
3.14335e-05
3.4971e-05
3.79504e-05
3.99699e-05
4.11931e-05
4.19029e-05
4.23249e-05
4.26009e-05
4.28102e-05
4.29951e-05
4.31783e-05
4.33732e-05
4.3589e-05
4.38331e-05
4.41102e-05
4.44172e-05
4.47315e-05
4.5003e-05
4.51641e-05
2.87804e-05
2.87804e-05
2.87803e-05
2.87803e-05
2.87801e-05
2.87802e-05
2.87801e-05
2.87801e-05
2.878e-05
2.87801e-05
2.878e-05
2.878e-05
2.878e-05
2.878e-05
2.878e-05
2.878e-05
2.878e-05
2.878e-05
2.878e-05
2.878e-05
)
;
    }
    frontAndBack
    {
        type            empty;
    }
}


// ************************************************************************* //
