/*--------------------------------*- C++ -*----------------------------------*\
| =========                 |                                                 |
| \\      /  F ield         | OpenFOAM: The Open Source CFD Toolbox           |
|  \\    /   O peration     | Version:  2506                                  |
|   \\  /    A nd           | Website:  www.openfoam.com                      |
|    \\/     M anipulation  |                                                 |
\*---------------------------------------------------------------------------*/
FoamFile
{
    version     2.0;
    format      ascii;
    arch        "LSB;label=32;scalar=64";
    class       volVectorField;
    location    "5";
    object      kU;
}
// * * * * * * * * * * * * * * * * * * * * * * * * * * * * * * * * * * * * * //

dimensions      [0 3 -3 0 0 0 0];

internalField   nonuniform List<vector> 
400
(
(-1.437e-05 4.23438e-14 0)
(-1.437e-05 -1.00476e-14 0)
(-1.43698e-05 2.38863e-15 0)
(-1.437e-05 -5.66263e-16 0)
(-1.43698e-05 1.3496e-16 0)
(-1.43699e-05 -3.18782e-17 0)
(-1.43697e-05 7.67896e-18 0)
(-1.43698e-05 -1.76911e-18 0)
(-1.43698e-05 4.56341e-19 0)
(-1.43698e-05 -8.3524e-20 0)
(-1.43698e-05 3.80478e-20 0)
(-1.43697e-05 3.5477e-21 0)
(-1.43697e-05 7.59208e-21 0)
(-1.43697e-05 4.15322e-21 0)
(-1.43697e-05 3.96524e-21 0)
(-1.43697e-05 3.41703e-21 0)
(-1.43697e-05 2.40124e-21 0)
(-1.43697e-05 1.56124e-21 0)
(-1.43697e-05 9.2742e-22 0)
(-1.43697e-05 1.03808e-21 0)
(-1.57032e-05 -4.63484e-14 0)
(-1.57032e-05 1.10169e-14 0)
(-1.57013e-05 -2.61025e-15 0)
(-1.57005e-05 6.21547e-16 0)
(-1.56993e-05 -1.46518e-16 0)
(-1.56986e-05 3.52582e-17 0)
(-1.56976e-05 -8.07703e-18 0)
(-1.56969e-05 2.08681e-18 0)
(-1.56961e-05 -3.83587e-19 0)
(-1.56955e-05 1.66023e-19 0)
(-1.56948e-05 1.31526e-20 0)
(-1.56943e-05 3.38132e-20 0)
(-1.56938e-05 1.74646e-20 0)
(-1.56935e-05 1.26538e-20 0)
(-1.56931e-05 8.59126e-21 0)
(-1.56928e-05 8.48236e-21 0)
(-1.56926e-05 6.91463e-21 0)
(-1.56925e-05 3.69818e-21 0)
(-1.56924e-05 1.92386e-21 0)
(-1.56924e-05 1.35507e-21 0)
(-1.74694e-05 5.15595e-14 0)
(-1.74694e-05 -1.22462e-14 0)
(-1.7467e-05 2.90808e-15 0)
(-1.7466e-05 -6.89174e-16 0)
(-1.74645e-05 1.64621e-16 0)
(-1.74636e-05 -3.84753e-17 0)
(-1.74623e-05 9.53263e-18 0)
(-1.74615e-05 -2.00555e-18 0)
(-1.74604e-05 6.5328e-19 0)
(-1.74597e-05 -3.45318e-20 0)
(-1.74589e-05 9.22367e-20 0)
(-1.74583e-05 3.78737e-20 0)
(-1.74577e-05 3.33351e-20 0)
(-1.74572e-05 2.09854e-20 0)
(-1.74568e-05 1.52008e-20 0)
(-1.74564e-05 1.22945e-20 0)
(-1.74562e-05 9.32339e-21 0)
(-1.7456e-05 5.80991e-21 0)
(-1.74559e-05 2.88773e-21 0)
(-1.74559e-05 7.64201e-22 0)
(-1.89575e-05 -5.59247e-14 0)
(-1.89574e-05 1.32759e-14 0)
(-1.89546e-05 -3.14939e-15 0)
(-1.89535e-05 7.48196e-16 0)
(-1.89517e-05 -1.76878e-16 0)
(-1.89506e-05 4.25141e-17 0)
(-1.89491e-05 -9.69368e-18 0)
(-1.89481e-05 2.58533e-18 0)
(-1.89469e-05 -4.08396e-19 0)
(-1.8946e-05 2.45032e-19 0)
(-1.8945e-05 4.95971e-20 0)
(-1.89443e-05 6.57598e-20 0)
(-1.89436e-05 3.95075e-20 0)
(-1.89431e-05 3.04179e-20 0)
(-1.89425e-05 2.36602e-20 0)
(-1.89422e-05 1.74644e-20 0)
(-1.89419e-05 1.17119e-20 0)
(-1.89417e-05 7.72539e-21 0)
(-1.89415e-05 3.96002e-21 0)
(-1.89415e-05 1.17866e-21 0)
(-1.99665e-05 5.87644e-14 0)
(-1.99664e-05 -1.3945e-14 0)
(-1.99633e-05 3.30903e-15 0)
(-1.9962e-05 -7.84597e-16 0)
(-1.99601e-05 1.86689e-16 0)
(-1.99588e-05 -4.3862e-17 0)
(-1.99571e-05 1.07586e-17 0)
(-1.99561e-05 -2.28318e-18 0)
(-1.99547e-05 7.44219e-19 0)
(-1.99538e-05 -2.70383e-20 0)
(-1.99526e-05 1.19028e-19 0)
(-1.99519e-05 5.57565e-20 0)
(-1.9951e-05 4.92012e-20 0)
(-1.99504e-05 3.49708e-20 0)
(-1.99499e-05 2.70699e-20 0)
(-1.99494e-05 2.01067e-20 0)
(-1.99491e-05 1.51972e-20 0)
(-1.99489e-05 1.0112e-20 0)
(-1.99487e-05 6.13654e-21 0)
(-1.99487e-05 2.17301e-21 0)
(-2.05778e-05 -6.04012e-14 0)
(-2.05777e-05 1.43313e-14 0)
(-2.05743e-05 -3.39954e-15 0)
(-2.05731e-05 8.06911e-16 0)
(-2.05709e-05 -1.91053e-16 0)
(-2.05696e-05 4.56684e-17 0)
(-2.05678e-05 -1.0547e-17 0)
(-2.05666e-05 2.73261e-18 0)
(-2.05652e-05 -4.66763e-19 0)
(-2.05642e-05 2.50874e-19 0)
(-2.0563e-05 4.7454e-20 0)
(-2.05622e-05 7.10821e-20 0)
(-2.05613e-05 4.75482e-20 0)
(-2.05607e-05 3.95162e-20 0)
(-2.056e-05 2.82829e-20 0)
(-2.05596e-05 2.03485e-20 0)
(-2.05592e-05 1.63968e-20 0)
(-2.0559e-05 1.02528e-20 0)
(-2.05589e-05 5.97709e-21 0)
(-2.05588e-05 1.81715e-21 0)
(-2.09326e-05 6.12539e-14 0)
(-2.09325e-05 -1.45323e-14 0)
(-2.0929e-05 3.44758e-15 0)
(-2.09277e-05 -8.17641e-16 0)
(-2.09253e-05 1.94227e-16 0)
(-2.0924e-05 -4.58298e-17 0)
(-2.09222e-05 1.10917e-17 0)
(-2.0921e-05 -2.44696e-18 0)
(-2.09195e-05 7.32304e-19 0)
(-2.09185e-05 -5.13456e-20 0)
(-2.09172e-05 1.06552e-19 0)
(-2.09164e-05 4.86369e-20 0)
(-2.09155e-05 4.74862e-20 0)
(-2.09148e-05 3.6738e-20 0)
(-2.09141e-05 2.92466e-20 0)
(-2.09137e-05 2.07634e-20 0)
(-2.09133e-05 1.3803e-20 0)
(-2.09131e-05 6.39626e-21 0)
(-2.09129e-05 3.92005e-21 0)
(-2.09129e-05 1.45674e-21 0)
(-2.11435e-05 -6.16875e-14 0)
(-2.11436e-05 1.46347e-14 0)
(-2.11397e-05 -3.47142e-15 0)
(-2.11386e-05 8.23697e-16 0)
(-2.11362e-05 -1.95206e-16 0)
(-2.11348e-05 4.64868e-17 0)
(-2.1133e-05 -1.08653e-17 0)
(-2.11317e-05 2.72107e-18 0)
(-2.11302e-05 -5.25488e-19 0)
(-2.11291e-05 2.2121e-19 0)
(-2.11278e-05 2.19525e-20 0)
(-2.1127e-05 5.26842e-20 0)
(-2.11259e-05 3.53381e-20 0)
(-2.11254e-05 3.1145e-20 0)
(-2.11246e-05 2.65232e-20 0)
(-2.11243e-05 1.92684e-20 0)
(-2.11238e-05 1.0864e-20 0)
(-2.11236e-05 4.38205e-21 0)
(-2.11234e-05 2.72927e-21 0)
(-2.11234e-05 1.47176e-21 0)
(-2.12814e-05 6.19006e-14 0)
(-2.12814e-05 -1.46848e-14 0)
(-2.12778e-05 3.48352e-15 0)
(-2.12763e-05 -8.26274e-16 0)
(-2.12742e-05 1.96112e-16 0)
(-2.12726e-05 -4.64116e-17 0)
(-2.12709e-05 1.11123e-17 0)
(-2.12694e-05 -2.54456e-18 0)
(-2.1268e-05 6.79162e-19 0)
(-2.12668e-05 -9.82129e-20 0)
(-2.12656e-05 7.62709e-20 0)
(-2.12647e-05 2.68417e-20 0)
(-2.12637e-05 3.0865e-20 0)
(-2.12631e-05 2.21022e-20 0)
(-2.12624e-05 1.68357e-20 0)
(-2.12619e-05 1.24085e-20 0)
(-2.12615e-05 8.15977e-21 0)
(-2.12613e-05 5.15005e-21 0)
(-2.12611e-05 1.36414e-21 0)
(-2.1261e-05 -1.40773e-22 0)
(-2.1386e-05 -6.20231e-14 0)
(-2.13859e-05 1.47138e-14 0)
(-2.13824e-05 -3.4903e-15 0)
(-2.13809e-05 8.28026e-16 0)
(-2.13786e-05 -1.9636e-16 0)
(-2.13772e-05 4.66356e-17 0)
(-2.13752e-05 -1.10137e-17 0)
(-2.1374e-05 2.6554e-18 0)
(-2.13723e-05 -5.9378e-19 0)
(-2.13713e-05 1.73558e-19 0)
(-2.137e-05 -8.49085e-21 0)
(-2.13691e-05 3.19812e-20 0)
(-2.13681e-05 1.65823e-20 0)
(-2.13675e-05 1.60212e-20 0)
(-2.13667e-05 9.9627e-21 0)
(-2.13663e-05 8.61319e-21 0)
(-2.13659e-05 5.2281e-21 0)
(-2.13657e-05 4.94876e-21 0)
(-2.13655e-05 2.81049e-21 0)
(-2.13654e-05 8.4884e-22 0)
(-2.14784e-05 6.21118e-14 0)
(-2.14783e-05 -1.47349e-14 0)
(-2.14748e-05 3.49534e-15 0)
(-2.14732e-05 -8.29175e-16 0)
(-2.14709e-05 1.96687e-16 0)
(-2.14695e-05 -4.66577e-17 0)
(-2.14675e-05 1.10701e-17 0)
(-2.14662e-05 -2.62107e-18 0)
(-2.14647e-05 6.31226e-19 0)
(-2.14636e-05 -1.37759e-19 0)
(-2.14622e-05 4.35849e-20 0)
(-2.14614e-05 -2.54506e-21 0)
(-2.14603e-05 6.08449e-21 0)
(-2.14597e-05 3.53956e-21 0)
(-2.14589e-05 4.52165e-21 0)
(-2.14585e-05 4.93688e-21 0)
(-2.1458e-05 4.80042e-21 0)
(-2.14579e-05 3.9857e-21 0)
(-2.14577e-05 1.92607e-21 0)
(-2.14576e-05 1.17946e-21 0)
(-2.15699e-05 -6.22036e-14 0)
(-2.15698e-05 1.47569e-14 0)
(-2.15663e-05 -3.5006e-15 0)
(-2.15647e-05 8.30383e-16 0)
(-2.15624e-05 -1.97028e-16 0)
(-2.15609e-05 4.66913e-17 0)
(-2.15589e-05 -1.11194e-17 0)
(-2.15577e-05 2.6022e-18 0)
(-2.1556e-05 -6.43187e-19 0)
(-2.1555e-05 1.31628e-19 0)
(-2.15535e-05 -4.97495e-20 0)
(-2.15529e-05 -1.38133e-21 0)
(-2.15515e-05 -7.11601e-21 0)
(-2.15512e-05 -3.09782e-21 0)
(-2.15502e-05 -2.28295e-21 0)
(-2.155e-05 -1.75274e-22 0)
(-2.15494e-05 3.77797e-21 0)
(-2.15492e-05 4.07683e-21 0)
(-2.15491e-05 1.24462e-21 0)
(-2.1549e-05 4.81529e-22 0)
(-2.16673e-05 6.23187e-14 0)
(-2.16672e-05 -1.47845e-14 0)
(-2.16635e-05 3.50702e-15 0)
(-2.1662e-05 -8.32073e-16 0)
(-2.16597e-05 1.97263e-16 0)
(-2.16582e-05 -4.69063e-17 0)
(-2.16562e-05 1.10324e-17 0)
(-2.16549e-05 -2.69487e-18 0)
(-2.16533e-05 5.7833e-19 0)
(-2.16522e-05 -1.88722e-19 0)
(-2.16509e-05 3.70977e-21 0)
(-2.165e-05 -3.06847e-20 0)
(-2.16489e-05 -1.10492e-20 0)
(-2.16483e-05 -8.59311e-21 0)
(-2.16475e-05 -6.77364e-21 0)
(-2.16471e-05 -5.81734e-21 0)
(-2.16467e-05 -3.19695e-21 0)
(-2.16464e-05 -1.21927e-21 0)
(-2.16463e-05 4.99744e-22 0)
(-2.16462e-05 4.0049e-22 0)
(-2.17752e-05 -6.24651e-14 0)
(-2.17751e-05 1.48195e-14 0)
(-2.17713e-05 -3.51557e-15 0)
(-2.17698e-05 8.33823e-16 0)
(-2.17676e-05 -1.97993e-16 0)
(-2.17658e-05 4.6796e-17 0)
(-2.17641e-05 -1.12505e-17 0)
(-2.17625e-05 2.54664e-18 0)
(-2.1761e-05 -6.98466e-19 0)
(-2.17598e-05 9.39305e-20 0)
(-2.17585e-05 -7.82237e-20 0)
(-2.17576e-05 -2.60769e-20 0)
(-2.17566e-05 -2.81538e-20 0)
(-2.17559e-05 -1.80441e-20 0)
(-2.17552e-05 -1.21035e-20 0)
(-2.17547e-05 -8.41112e-21 0)
(-2.17543e-05 -7.17357e-21 0)
(-2.1754e-05 -4.92897e-21 0)
(-2.17538e-05 -2.21354e-22 0)
(-2.17538e-05 4.86219e-22 0)
(-2.18971e-05 6.26613e-14 0)
(-2.18972e-05 -1.48667e-14 0)
(-2.1893e-05 3.52631e-15 0)
(-2.18918e-05 -8.36876e-16 0)
(-2.18893e-05 1.98228e-16 0)
(-2.18877e-05 -4.72903e-17 0)
(-2.18858e-05 1.10007e-17 0)
(-2.18844e-05 -2.78248e-18 0)
(-2.18828e-05 5.27498e-19 0)
(-2.18816e-05 -2.22499e-19 0)
(-2.18803e-05 -1.88038e-20 0)
(-2.18793e-05 -4.86091e-20 0)
(-2.18782e-05 -2.74949e-20 0)
(-2.18776e-05 -2.22346e-20 0)
(-2.18768e-05 -1.36156e-20 0)
(-2.18764e-05 -7.99798e-21 0)
(-2.18759e-05 -7.54491e-21 0)
(-2.18757e-05 -4.34162e-21 0)
(-2.18755e-05 -1.48047e-21 0)
(-2.18755e-05 -8.61593e-24 0)
(-2.20356e-05 -6.28979e-14 0)
(-2.20355e-05 1.49229e-14 0)
(-2.20316e-05 -3.54044e-15 0)
(-2.203e-05 8.39477e-16 0)
(-2.20278e-05 -1.99589e-16 0)
(-2.2026e-05 4.69849e-17 0)
(-2.20242e-05 -1.14342e-17 0)
(-2.20226e-05 2.49881e-18 0)
(-2.20211e-05 -7.49172e-19 0)
(-2.20198e-05 6.37632e-20 0)
(-2.20185e-05 -9.64938e-20 0)
(-2.20176e-05 -3.36991e-20 0)
(-2.20165e-05 -3.08092e-20 0)
(-2.20158e-05 -2.10333e-20 0)
(-2.20151e-05 -1.71313e-20 0)
(-2.20146e-05 -1.23339e-20 0)
(-2.20141e-05 -9.4324e-21 0)
(-2.20139e-05 -6.89309e-21 0)
(-2.20137e-05 -5.49367e-21 0)
(-2.20137e-05 -1.90354e-21 0)
(-2.21889e-05 6.31885e-14 0)
(-2.21888e-05 -1.49927e-14 0)
(-2.21849e-05 3.55579e-15 0)
(-2.21834e-05 -8.44323e-16 0)
(-2.21807e-05 1.99648e-16 0)
(-2.21794e-05 -4.78507e-17 0)
(-2.21771e-05 1.09986e-17 0)
(-2.2176e-05 -2.85418e-18 0)
(-2.2174e-05 5.0836e-19 0)
(-2.21731e-05 -2.37774e-19 0)
(-2.21715e-05 -2.43428e-20 0)
(-2.21707e-05 -4.89462e-20 0)
(-2.21695e-05 -2.72996e-20 0)
(-2.21689e-05 -2.3259e-20 0)
(-2.2168e-05 -1.80074e-20 0)
(-2.21677e-05 -1.47028e-20 0)
(-2.21671e-05 -9.66024e-21 0)
(-2.21669e-05 -7.41304e-21 0)
(-2.21668e-05 -4.4003e-21 0)
(-2.21667e-05 -1.20295e-21 0)
(-2.23459e-05 -6.34697e-14 0)
(-2.23458e-05 1.50594e-14 0)
(-2.23419e-05 -3.57425e-15 0)
(-2.23402e-05 8.46726e-16 0)
(-2.23378e-05 -2.01845e-16 0)
(-2.23361e-05 4.72957e-17 0)
(-2.23342e-05 -1.16086e-17 0)
(-2.23326e-05 2.50707e-18 0)
(-2.2331e-05 -7.58007e-19 0)
(-2.23297e-05 7.29071e-20 0)
(-2.23284e-05 -8.71365e-20 0)
(-2.23274e-05 -2.53575e-20 0)
(-2.23263e-05 -2.85616e-20 0)
(-2.23256e-05 -2.00154e-20 0)
(-2.23248e-05 -1.40627e-20 0)
(-2.23243e-05 -1.05028e-20 0)
(-2.23239e-05 -7.71517e-21 0)
(-2.23236e-05 -4.87434e-21 0)
(-2.23235e-05 -1.93411e-21 0)
(-2.23234e-05 -1.0344e-21 0)
(-2.24807e-05 6.37184e-14 0)
(-2.24807e-05 -1.51216e-14 0)
(-2.2477e-05 3.58175e-15 0)
(-2.24754e-05 -8.51359e-16 0)
(-2.24729e-05 2.00723e-16 0)
(-2.24714e-05 -4.81145e-17 0)
(-2.24693e-05 1.10859e-17 0)
(-2.24679e-05 -2.80962e-18 0)
(-2.24662e-05 5.48435e-19 0)
(-2.2465e-05 -2.05509e-19 0)
(-2.24636e-05 -4.1099e-21 0)
(-2.24627e-05 -3.4899e-20 0)
(-2.24616e-05 -1.80364e-20 0)
(-2.24609e-05 -1.50542e-20 0)
(-2.24601e-05 -1.18481e-20 0)
(-2.24597e-05 -7.52538e-21 0)
(-2.24592e-05 -3.89968e-21 0)
(-2.24589e-05 -1.49451e-21 0)
(-2.24588e-05 -8.97857e-22 0)
(-2.24587e-05 -9.07972e-22 0)
(-2.25394e-05 -6.37274e-14 0)
(-2.25393e-05 1.51059e-14 0)
(-2.25392e-05 -3.58816e-15 0)
(-2.25392e-05 8.50272e-16 0)
(-2.25391e-05 -2.02292e-16 0)
(-2.25391e-05 4.78092e-17 0)
(-2.25391e-05 -1.14697e-17 0)
(-2.25391e-05 2.65805e-18 0)
(-2.2539e-05 -6.72381e-19 0)
(-2.2539e-05 1.32014e-19 0)
(-2.2539e-05 -5.2677e-20 0)
(-2.2539e-05 -1.74708e-21 0)
(-2.2539e-05 -8.73586e-21 0)
(-2.2539e-05 -4.90874e-21 0)
(-2.2539e-05 -6.60172e-21 0)
(-2.2539e-05 -4.29565e-21 0)
(-2.2539e-05 -1.44602e-21 0)
(-2.2539e-05 3.21289e-22 0)
(-2.2539e-05 1.00839e-23 0)
(-2.2539e-05 1.90355e-22 0)
)
;

boundaryField
{
    movingWall
    {
        type            calculated;
        value           nonuniform List<vector> 
20
(
(-2.25394e-05 -0 -0)
(-2.25393e-05 -0 -0)
(-2.25392e-05 -0 -0)
(-2.25392e-05 -0 -0)
(-2.25391e-05 -0 -0)
(-2.25391e-05 -0 -0)
(-2.25391e-05 -0 -0)
(-2.25391e-05 -0 -0)
(-2.2539e-05 -0 -0)
(-2.2539e-05 -0 -0)
(-2.2539e-05 -0 -0)
(-2.2539e-05 -0 -0)
(-2.2539e-05 -0 -0)
(-2.2539e-05 -0 -0)
(-2.2539e-05 -0 -0)
(-2.2539e-05 -0 -0)
(-2.2539e-05 -0 -0)
(-2.2539e-05 -0 -0)
(-2.2539e-05 -0 -0)
(-2.2539e-05 -0 -0)
)
;
    }
    fixedWalls
    {
        type            calculated;
        value           nonuniform List<vector> 
60
(
(-1.437e-05 -0 -0)
(-1.57032e-05 -0 -0)
(-1.74694e-05 -0 -0)
(-1.89575e-05 -0 -0)
(-1.99665e-05 -0 -0)
(-2.05778e-05 -0 -0)
(-2.09326e-05 -0 -0)
(-2.11435e-05 -0 -0)
(-2.12814e-05 -0 -0)
(-2.1386e-05 -0 -0)
(-2.14784e-05 -0 -0)
(-2.15699e-05 -0 -0)
(-2.16673e-05 -0 -0)
(-2.17752e-05 -0 -0)
(-2.18971e-05 -0 -0)
(-2.20356e-05 -0 -0)
(-2.21889e-05 -0 -0)
(-2.23459e-05 -0 -0)
(-2.24807e-05 -0 -0)
(-2.25394e-05 -0 -0)
(-1.43697e-05 -0 -0)
(-1.56924e-05 -0 -0)
(-1.74559e-05 -0 -0)
(-1.89415e-05 -0 -0)
(-1.99487e-05 -0 -0)
(-2.05588e-05 -0 -0)
(-2.09129e-05 -0 -0)
(-2.11234e-05 -0 -0)
(-2.1261e-05 -0 -0)
(-2.13654e-05 -0 -0)
(-2.14576e-05 -0 -0)
(-2.1549e-05 -0 -0)
(-2.16462e-05 -0 -0)
(-2.17538e-05 -0 -0)
(-2.18755e-05 -0 -0)
(-2.20137e-05 -0 -0)
(-2.21667e-05 -0 -0)
(-2.23234e-05 -0 -0)
(-2.24587e-05 -0 -0)
(-2.2539e-05 -0 -0)
(-1.437e-05 -0 -0)
(-1.437e-05 -0 -0)
(-1.43698e-05 -0 -0)
(-1.437e-05 -0 -0)
(-1.43698e-05 -0 -0)
(-1.43699e-05 -0 -0)
(-1.43697e-05 -0 -0)
(-1.43698e-05 -0 -0)
(-1.43698e-05 -0 -0)
(-1.43698e-05 -0 -0)
(-1.43698e-05 -0 -0)
(-1.43697e-05 -0 -0)
(-1.43697e-05 -0 -0)
(-1.43697e-05 -0 -0)
(-1.43697e-05 -0 -0)
(-1.43697e-05 -0 -0)
(-1.43697e-05 -0 -0)
(-1.43697e-05 -0 -0)
(-1.43697e-05 -0 -0)
(-1.43697e-05 -0 -0)
)
;
    }
    frontAndBack
    {
        type            empty;
    }
}


// ************************************************************************* //
