/*--------------------------------*- C++ -*----------------------------------*\
| =========                 |                                                 |
| \\      /  F ield         | OpenFOAM: The Open Source CFD Toolbox           |
|  \\    /   O peration     | Version:  2506                                  |
|   \\  /    A nd           | Website:  www.openfoam.com                      |
|    \\/     M anipulation  |                                                 |
\*---------------------------------------------------------------------------*/
FoamFile
{
    version     2.0;
    format      ascii;
    arch        "LSB;label=32;scalar=64";
    class       volTensorField;
    location    "5";
    object      kU2;
}
// * * * * * * * * * * * * * * * * * * * * * * * * * * * * * * * * * * * * * //

dimensions      [0 4 -4 0 0 0 0];

internalField   nonuniform List<tensor> 
400
(
(1.437e-05 -4.29811e-14 -0 -4.23438e-14 1.26652e-22 0 -0 0 0)
(1.437e-05 1.01989e-14 -0 1.00476e-14 7.13118e-24 -0 -0 -0 0)
(1.43698e-05 -2.42459e-15 -0 -2.38863e-15 4.03028e-25 0 -0 0 0)
(1.437e-05 5.74794e-16 -0 5.66263e-16 2.26503e-26 -0 -0 -0 0)
(1.43698e-05 -1.36993e-16 -0 -1.3496e-16 1.28663e-27 0 -0 0 0)
(1.43699e-05 3.23586e-17 -0 3.18782e-17 7.17842e-29 -0 -0 -0 0)
(1.43697e-05 -7.7946e-18 -0 -7.67896e-18 4.16531e-30 0 -0 0 0)
(1.43698e-05 1.79565e-18 -0 1.76911e-18 2.21067e-31 -0 -0 -0 0)
(1.43698e-05 -4.62617e-19 -0 -4.56341e-19 1.46914e-32 0 -0 0 0)
(1.43698e-05 8.54875e-20 -0 8.3524e-20 4.96894e-34 -0 -0 -0 0)
(1.43698e-05 -3.77353e-20 -0 -3.80478e-20 9.99144e-35 0 -0 0 0)
(1.43697e-05 -4.01915e-21 -0 -3.5477e-21 9.92274e-37 0 -0 0 0)
(1.43697e-05 -8.4168e-21 -0 -7.59208e-21 4.44691e-36 0 -0 0 0)
(1.43697e-05 -4.30693e-21 -0 -4.15322e-21 1.24481e-36 0 -0 0 0)
(1.43697e-05 -3.59714e-21 -0 -3.96524e-21 9.9261e-37 0 -0 0 0)
(1.43697e-05 -3.56829e-21 -0 -3.41703e-21 8.48516e-37 0 -0 0 0)
(1.43697e-05 -2.64144e-21 -0 -2.40124e-21 4.41394e-37 0 -0 0 0)
(1.43697e-05 -1.52147e-21 -0 -1.56124e-21 1.65305e-37 0 -0 0 0)
(1.43697e-05 -1.15711e-21 -0 -9.2742e-22 7.46797e-38 0 -0 0 0)
(1.43697e-05 -6.71474e-22 -0 -1.03808e-21 4.8508e-38 0 -0 0 0)
(1.57032e-05 4.70452e-14 -0 4.63484e-14 1.38855e-22 -0 -0 -0 0)
(1.57032e-05 -1.11825e-14 -0 -1.10169e-14 7.84529e-24 0 -0 0 0)
(1.57013e-05 2.6495e-15 -0 2.61025e-15 4.40464e-25 -0 -0 -0 0)
(1.57005e-05 -6.30885e-16 -0 -6.21547e-16 2.49752e-26 0 -0 0 0)
(1.56993e-05 1.48723e-16 -0 1.46518e-16 1.388e-27 -0 -0 -0 0)
(1.56986e-05 -3.57878e-17 -0 -3.52582e-17 8.03777e-29 0 -0 0 0)
(1.56976e-05 8.19981e-18 -0 8.07703e-18 4.21914e-30 -0 -0 -0 0)
(1.56969e-05 -2.11667e-18 -0 -2.08681e-18 2.814e-31 0 -0 0 0)
(1.56961e-05 3.89562e-19 -0 3.83587e-19 9.52027e-33 -0 -0 -0 0)
(1.56955e-05 -1.68749e-19 -0 -1.66023e-19 1.78498e-33 0 -0 0 0)
(1.56948e-05 -1.20714e-20 -0 -1.31526e-20 1.01161e-35 0 -0 0 0)
(1.56943e-05 -3.44081e-20 -0 -3.38132e-20 7.41317e-35 0 -0 0 0)
(1.56938e-05 -1.95116e-20 -0 -1.74646e-20 2.17132e-35 0 -0 0 0)
(1.56935e-05 -1.40792e-20 -0 -1.26538e-20 1.13522e-35 0 -0 0 0)
(1.56931e-05 -8.25837e-21 -0 -8.59126e-21 4.52109e-36 0 -0 0 0)
(1.56928e-05 -7.60672e-21 -0 -8.48236e-21 4.11162e-36 0 -0 0 0)
(1.56926e-05 -7.1639e-21 -0 -6.91463e-21 3.15662e-36 0 -0 0 0)
(1.56925e-05 -3.93051e-21 -0 -3.69818e-21 9.26286e-37 0 -0 0 0)
(1.56924e-05 -1.04041e-21 -0 -1.92386e-21 1.27552e-37 0 -0 0 0)
(1.56924e-05 -8.79564e-22 -0 -1.35507e-21 7.59522e-38 0 -0 0 0)
(1.74694e-05 -5.23336e-14 -0 -5.15595e-14 1.54458e-22 0 -0 0 0)
(1.74694e-05 1.24301e-14 -0 1.22462e-14 8.71363e-24 -0 -0 -0 0)
(1.7467e-05 -2.95172e-15 -0 -2.90808e-15 4.91433e-25 0 -0 0 0)
(1.7466e-05 6.9952e-16 -0 6.89174e-16 2.76016e-26 -0 -0 -0 0)
(1.74645e-05 -1.67087e-16 -0 -1.64621e-16 1.57496e-27 0 -0 0 0)
(1.74636e-05 3.90552e-17 -0 3.84753e-17 8.60453e-29 -0 -0 -0 0)
(1.74623e-05 -9.67362e-18 -0 -9.53263e-18 5.28081e-30 0 -0 0 0)
(1.74615e-05 2.03813e-18 -0 2.00555e-18 2.34091e-31 -0 -0 -0 0)
(1.74604e-05 -6.63027e-19 -0 -6.5328e-19 2.48071e-32 0 -0 0 0)
(1.74597e-05 3.36179e-20 -0 3.45318e-20 6.64894e-35 -0 -0 -0 0)
(1.74589e-05 -9.4246e-20 -0 -9.22367e-20 4.97909e-34 0 -0 0 0)
(1.74583e-05 -3.83192e-20 -0 -3.78737e-20 8.3129e-35 0 -0 0 0)
(1.74577e-05 -3.56787e-20 -0 -3.33351e-20 6.81278e-35 0 -0 0 0)
(1.74572e-05 -2.32527e-20 -0 -2.09854e-20 2.79522e-35 0 -0 0 0)
(1.74568e-05 -1.52876e-20 -0 -1.52008e-20 1.3312e-35 0 -0 0 0)
(1.74564e-05 -1.04014e-20 -0 -1.22945e-20 7.32563e-36 0 -0 0 0)
(1.74562e-05 -8.44295e-21 -0 -9.32339e-21 4.5094e-36 0 -0 0 0)
(1.7456e-05 -5.2453e-21 -0 -5.80991e-21 1.7458e-36 0 -0 0 0)
(1.74559e-05 -1.3607e-21 -0 -2.88773e-21 2.25101e-37 0 -0 0 0)
(1.74559e-05 -9.62395e-22 -0 -7.64201e-22 4.21327e-38 0 -0 0 0)
(1.89575e-05 5.67623e-14 -0 5.59247e-14 1.67449e-22 -0 -0 -0 0)
(1.89574e-05 -1.34747e-14 -0 -1.32759e-14 9.43637e-24 0 -0 0 0)
(1.89546e-05 3.19655e-15 -0 3.14939e-15 5.3112e-25 -0 -0 -0 0)
(1.89535e-05 -7.59392e-16 -0 -7.48196e-16 2.99773e-26 0 -0 0 0)
(1.89517e-05 1.79528e-16 -0 1.76878e-16 1.67556e-27 -0 -0 -0 0)
(1.89506e-05 -4.31473e-17 -0 -4.25141e-17 9.67974e-29 0 -0 0 0)
(1.89491e-05 9.84028e-18 -0 9.69368e-18 5.03394e-30 -0 -0 -0 0)
(1.89481e-05 -2.6222e-18 -0 -2.58533e-18 3.57779e-31 0 -0 0 0)
(1.89469e-05 4.15896e-19 -0 4.08396e-19 8.96457e-33 -0 -0 -0 0)
(1.8946e-05 -2.47989e-19 -0 -2.45032e-19 3.20727e-33 0 -0 0 0)
(1.8945e-05 -5.04754e-20 -0 -4.95971e-20 1.32142e-34 0 -0 0 0)
(1.89443e-05 -6.80667e-20 -0 -6.57598e-20 2.36274e-34 0 -0 0 0)
(1.89436e-05 -4.11545e-20 -0 -3.95075e-20 8.58293e-35 0 -0 0 0)
(1.89431e-05 -3.15517e-20 -0 -3.04179e-20 5.06644e-35 0 -0 0 0)
(1.89425e-05 -2.34616e-20 -0 -2.36602e-20 2.93048e-35 0 -0 0 0)
(1.89422e-05 -1.67338e-20 -0 -1.74644e-20 1.54283e-35 0 -0 0 0)
(1.89419e-05 -1.10229e-20 -0 -1.17119e-20 6.81556e-36 0 -0 0 0)
(1.89417e-05 -6.28423e-21 -0 -7.72539e-21 2.56303e-36 0 -0 0 0)
(1.89415e-05 -2.8468e-21 -0 -3.96002e-21 5.95168e-37 0 -0 0 0)
(1.89415e-05 -1.86356e-21 -0 -1.17866e-21 1.15962e-37 0 -0 0 0)
(1.99665e-05 -5.96436e-14 -0 -5.87644e-14 1.7554e-22 0 -0 0 0)
(1.99664e-05 1.41536e-14 -0 1.3945e-14 9.88514e-24 -0 -0 -0 0)
(1.99633e-05 -3.35851e-15 -0 -3.30903e-15 5.56691e-25 0 -0 0 0)
(1.9962e-05 7.96334e-16 -0 7.84597e-16 3.12994e-26 -0 -0 -0 0)
(1.99601e-05 -1.89477e-16 -0 -1.86689e-16 1.7722e-27 0 -0 0 0)
(1.99588e-05 4.45201e-17 -0 4.3862e-17 9.78383e-29 -0 -0 -0 0)
(1.99571e-05 -1.09164e-17 -0 -1.07586e-17 5.88485e-30 0 -0 0 0)
(1.99561e-05 2.31877e-18 -0 2.28318e-18 2.65291e-31 -0 -0 -0 0)
(1.99547e-05 -7.55974e-19 -0 -7.44219e-19 2.81944e-32 0 -0 0 0)
(1.99538e-05 2.67331e-20 -0 2.70383e-20 3.62246e-35 -0 -0 -0 0)
(1.99526e-05 -1.20135e-19 -0 -1.19028e-19 7.16675e-34 0 -0 0 0)
(1.99519e-05 -5.74442e-20 -0 -5.57565e-20 1.60531e-34 0 -0 0 0)
(1.9951e-05 -5.01229e-20 -0 -4.92012e-20 1.23608e-34 0 -0 0 0)
(1.99504e-05 -3.43685e-20 -0 -3.49708e-20 6.02441e-35 0 -0 0 0)
(1.99499e-05 -2.65981e-20 -0 -2.70699e-20 3.60908e-35 0 -0 0 0)
(1.99494e-05 -1.9903e-20 -0 -2.01067e-20 2.006e-35 0 -0 0 0)
(1.99491e-05 -1.45539e-20 -0 -1.51972e-20 1.10871e-35 0 -0 0 0)
(1.99489e-05 -9.21554e-21 -0 -1.0112e-20 4.67131e-36 0 -0 0 0)
(1.99487e-05 -4.2948e-21 -0 -6.13654e-21 1.32115e-36 0 -0 0 0)
(1.99487e-05 -3.21288e-21 -0 -2.17301e-21 3.4998e-37 0 -0 0 0)
(2.05778e-05 6.13045e-14 -0 6.04012e-14 1.79945e-22 -0 -0 -0 0)
(2.05777e-05 -1.45456e-14 -0 -1.43313e-14 1.01303e-23 0 -0 0 0)
(2.05743e-05 3.45037e-15 -0 3.39954e-15 5.70113e-25 -0 -0 -0 0)
(2.05731e-05 -8.18972e-16 -0 -8.06911e-16 3.21215e-26 0 -0 0 0)
(2.05709e-05 1.9391e-16 -0 1.91053e-16 1.80095e-27 -0 -0 -0 0)
(2.05696e-05 -4.63486e-17 -0 -4.56684e-17 1.02903e-28 0 -0 0 0)
(2.05678e-05 1.0706e-17 -0 1.0547e-17 5.48994e-30 -0 -0 -0 0)
(2.05666e-05 -2.77345e-18 -0 -2.73261e-18 3.68497e-31 0 -0 0 0)
(2.05652e-05 4.74539e-19 -0 4.66763e-19 1.07705e-32 -0 -0 -0 0)
(2.05642e-05 -2.54258e-19 -0 -2.50874e-19 3.10184e-33 0 -0 0 0)
(2.0563e-05 -4.80339e-20 -0 -4.7454e-20 1.1085e-34 0 -0 0 0)
(2.05622e-05 -7.10396e-20 -0 -7.10821e-20 2.45579e-34 0 -0 0 0)
(2.05613e-05 -4.6372e-20 -0 -4.75482e-20 1.07236e-34 0 -0 0 0)
(2.05607e-05 -3.7577e-20 -0 -3.95162e-20 7.22205e-35 0 -0 0 0)
(2.056e-05 -2.79896e-20 -0 -2.82829e-20 3.85032e-35 0 -0 0 0)
(2.05596e-05 -1.89643e-20 -0 -2.03485e-20 1.87696e-35 0 -0 0 0)
(2.05592e-05 -1.48068e-20 -0 -1.63968e-20 1.1809e-35 0 -0 0 0)
(2.0559e-05 -9.82959e-21 -0 -1.02528e-20 4.90204e-36 0 -0 0 0)
(2.05589e-05 -5.53313e-21 -0 -5.97709e-21 1.60865e-36 0 -0 0 0)
(2.05588e-05 -4.36875e-21 -0 -1.81715e-21 3.86145e-37 0 -0 0 0)
(2.09326e-05 -6.21701e-14 -0 -6.12539e-14 1.81925e-22 0 -0 0 0)
(2.09325e-05 1.47496e-14 -0 1.45323e-14 1.02398e-23 -0 -0 -0 0)
(2.0929e-05 -3.49913e-15 -0 -3.44758e-15 5.76404e-25 0 -0 0 0)
(2.09277e-05 8.29864e-16 -0 8.17641e-16 3.24226e-26 -0 -0 -0 0)
(2.09253e-05 -1.97131e-16 -0 -1.94227e-16 1.82975e-27 0 -0 0 0)
(2.0924e-05 4.65147e-17 -0 4.58298e-17 1.01881e-28 -0 -0 -0 0)
(2.09222e-05 -1.12572e-17 -0 -1.10917e-17 5.96788e-30 0 -0 0 0)
(2.0921e-05 2.48406e-18 -0 2.44696e-18 2.90539e-31 -0 -0 -0 0)
(2.09195e-05 -7.40023e-19 -0 -7.32304e-19 2.59051e-32 0 -0 0 0)
(2.09185e-05 5.48032e-20 -0 5.13456e-20 1.34518e-34 -0 -0 -0 0)
(2.09172e-05 -1.09417e-19 -0 -1.06552e-19 5.57368e-34 0 -0 0 0)
(2.09164e-05 -4.88359e-20 -0 -4.86369e-20 1.13558e-34 0 -0 0 0)
(2.09155e-05 -4.5991e-20 -0 -4.74862e-20 1.04417e-34 0 -0 0 0)
(2.09148e-05 -3.49021e-20 -0 -3.6738e-20 6.13076e-35 0 -0 0 0)
(2.09141e-05 -2.73974e-20 -0 -2.92466e-20 3.83128e-35 0 -0 0 0)
(2.09137e-05 -1.90462e-20 -0 -2.07634e-20 1.89094e-35 0 -0 0 0)
(2.09133e-05 -1.34363e-20 -0 -1.3803e-20 8.86807e-36 0 -0 0 0)
(2.09131e-05 -6.16397e-21 -0 -6.39626e-21 1.88525e-36 0 -0 0 0)
(2.09129e-05 -4.67366e-21 -0 -3.92005e-21 8.76059e-37 0 -0 0 0)
(2.09129e-05 -4.24078e-21 -0 -1.45674e-21 2.95402e-37 0 -0 0 0)
(2.11435e-05 6.26103e-14 -0 6.16875e-14 1.82669e-22 -0 -0 -0 0)
(2.11436e-05 -1.48536e-14 -0 -1.46347e-14 1.0281e-23 0 -0 0 0)
(2.11397e-05 3.52333e-15 -0 3.47142e-15 5.78578e-25 -0 -0 -0 0)
(2.11386e-05 -8.36011e-16 -0 -8.23697e-16 3.25764e-26 0 -0 0 0)
(2.11362e-05 1.98124e-16 -0 1.95206e-16 1.8298e-27 -0 -0 -0 0)
(2.11348e-05 -4.71833e-17 -0 -4.64868e-17 1.03782e-28 0 -0 0 0)
(2.1133e-05 1.10288e-17 -0 1.08653e-17 5.67032e-30 -0 -0 -0 0)
(2.11317e-05 -2.76055e-18 -0 -2.72107e-18 3.55469e-31 0 -0 0 0)
(2.11302e-05 5.32919e-19 -0 5.25488e-19 1.32532e-32 -0 -0 -0 0)
(2.11291e-05 -2.25926e-19 -0 -2.2121e-19 2.36533e-33 0 -0 0 0)
(2.11278e-05 -2.54757e-20 -0 -2.19525e-20 2.64701e-35 0 -0 0 0)
(2.1127e-05 -5.28777e-20 -0 -5.26842e-20 1.31861e-34 0 -0 0 0)
(2.11259e-05 -3.2275e-20 -0 -3.53381e-20 5.39875e-35 0 -0 0 0)
(2.11254e-05 -2.90217e-20 -0 -3.1145e-20 4.27865e-35 0 -0 0 0)
(2.11246e-05 -2.24627e-20 -0 -2.65232e-20 2.82033e-35 0 -0 0 0)
(2.11243e-05 -1.89815e-20 -0 -1.92684e-20 1.73139e-35 0 -0 0 0)
(2.11238e-05 -1.14664e-20 -0 -1.0864e-20 5.89716e-36 0 -0 0 0)
(2.11236e-05 -5.13507e-21 -0 -4.38205e-21 1.06526e-36 0 -0 0 0)
(2.11234e-05 -2.92099e-21 -0 -2.72927e-21 3.77409e-37 0 -0 0 0)
(2.11234e-05 -3.04008e-21 -0 -1.47176e-21 2.11816e-37 0 -0 0 0)
(2.12814e-05 -6.28267e-14 -0 -6.19006e-14 1.82742e-22 0 -0 0 0)
(2.12814e-05 1.49044e-14 -0 1.46848e-14 1.02845e-23 -0 -0 -0 0)
(2.12778e-05 -3.53563e-15 -0 -3.48352e-15 5.7884e-25 0 -0 0 0)
(2.12763e-05 8.38629e-16 -0 8.26274e-16 3.25685e-26 -0 -0 -0 0)
(2.12742e-05 -1.99046e-16 -0 -1.96112e-16 1.83487e-27 0 -0 0 0)
(2.12726e-05 4.71028e-17 -0 4.64116e-17 1.02767e-28 -0 -0 -0 0)
(2.12709e-05 -1.12798e-17 -0 -1.11123e-17 5.89275e-30 0 -0 0 0)
(2.12694e-05 2.58186e-18 -0 2.54456e-18 3.08881e-31 -0 -0 -0 0)
(2.1268e-05 -6.90149e-19 -0 -6.79162e-19 2.20389e-32 0 -0 0 0)
(2.12668e-05 9.83221e-20 -0 9.82129e-20 4.54065e-34 -0 -0 -0 0)
(2.12656e-05 -7.62069e-20 -0 -7.62709e-20 2.73323e-34 0 -0 0 0)
(2.12647e-05 -2.43884e-20 -0 -2.68417e-20 3.07847e-35 0 -0 0 0)
(2.12637e-05 -2.85369e-20 -0 -3.0865e-20 4.14223e-35 0 -0 0 0)
(2.12631e-05 -2.08393e-20 -0 -2.21022e-20 2.16617e-35 0 -0 0 0)
(2.12624e-05 -1.5166e-20 -0 -1.68357e-20 1.20086e-35 0 -0 0 0)
(2.12619e-05 -1.07669e-20 -0 -1.24085e-20 6.28359e-36 0 -0 0 0)
(2.12615e-05 -7.00583e-21 -0 -8.15977e-21 2.68871e-36 0 -0 0 0)
(2.12613e-05 -5.36693e-21 -0 -5.15005e-21 1.30002e-36 0 -0 0 0)
(2.12611e-05 -1.67376e-21 -0 -1.36414e-21 1.07391e-37 0 -0 0 0)
(2.1261e-05 -2.07683e-21 -0 1.40773e-22 -1.3751e-38 -0 -0 0 0)
(2.1386e-05 6.29513e-14 -0 6.20231e-14 1.8257e-22 -0 -0 -0 0)
(2.13859e-05 -1.4934e-14 -0 -1.47138e-14 1.02748e-23 0 -0 0 0)
(2.13824e-05 3.54251e-15 -0 3.4903e-15 5.78252e-25 -0 -0 -0 0)
(2.13809e-05 -8.40417e-16 -0 -8.28026e-16 3.25472e-26 0 -0 0 0)
(2.13786e-05 1.99294e-16 -0 1.9636e-16 1.83049e-27 -0 -0 -0 0)
(2.13772e-05 -4.73343e-17 -0 -4.66356e-17 1.03263e-28 0 -0 0 0)
(2.13752e-05 1.11767e-17 -0 1.10137e-17 5.75884e-30 -0 -0 -0 0)
(2.1374e-05 -2.69618e-18 -0 -2.6554e-18 3.34961e-31 0 -0 0 0)
(2.13723e-05 6.02548e-19 -0 5.9378e-19 1.67404e-32 -0 -0 -0 0)
(2.13713e-05 -1.74964e-19 -0 -1.73558e-19 1.4209e-33 0 -0 0 0)
(2.137e-05 1.25053e-20 -0 8.49085e-21 4.9687e-36 -0 -0 -0 0)
(2.13691e-05 -3.15612e-20 -0 -3.19812e-20 4.72348e-35 0 -0 0 0)
(2.13681e-05 -1.77022e-20 -0 -1.65823e-20 1.37375e-35 0 -0 0 0)
(2.13675e-05 -1.51683e-20 -0 -1.60212e-20 1.13731e-35 0 -0 0 0)
(2.13667e-05 -1.01551e-20 -0 -9.9627e-21 4.73503e-36 0 -0 0 0)
(2.13663e-05 -6.23595e-21 -0 -8.61319e-21 2.51384e-36 0 -0 0 0)
(2.13659e-05 -4.70849e-21 -0 -5.2281e-21 1.15214e-36 0 -0 0 0)
(2.13657e-05 -2.91299e-21 -0 -4.94876e-21 6.74713e-37 0 -0 0 0)
(2.13655e-05 -2.30118e-21 -0 -2.81049e-21 3.02706e-37 0 -0 0 0)
(2.13654e-05 -2.74406e-21 -0 -8.4884e-22 1.0902e-37 0 -0 0 0)
(2.14784e-05 -6.30417e-14 -0 -6.21118e-14 1.82306e-22 0 -0 0 0)
(2.14783e-05 1.49554e-14 -0 1.47349e-14 1.026e-23 -0 -0 -0 0)
(2.14748e-05 -3.54766e-15 -0 -3.49534e-15 5.77434e-25 0 -0 0 0)
(2.14732e-05 8.41583e-16 -0 8.29175e-16 3.24972e-26 -0 -0 -0 0)
(2.14709e-05 -1.99628e-16 -0 -1.96687e-16 1.82872e-27 0 -0 0 0)
(2.14695e-05 4.73563e-17 -0 4.66577e-17 1.02915e-28 -0 -0 -0 0)
(2.14675e-05 -1.12366e-17 -0 -1.10701e-17 5.79435e-30 0 -0 0 0)
(2.14662e-05 2.66059e-18 -0 2.62107e-18 3.24864e-31 -0 -0 -0 0)
(2.14647e-05 -6.41409e-19 -0 -6.31226e-19 1.88623e-32 0 -0 0 0)
(2.14636e-05 1.39198e-19 -0 1.37759e-19 8.93411e-34 -0 -0 -0 0)
(2.14622e-05 -4.41941e-20 -0 -4.35849e-20 8.97482e-35 0 -0 0 0)
(2.14614e-05 9.86452e-22 -0 2.54506e-21 1.16981e-37 -0 -0 -0 0)
(2.14603e-05 -7.35505e-21 -0 -6.08449e-21 2.08533e-36 0 -0 0 0)
(2.14597e-05 -4.06197e-21 -0 -3.53956e-21 6.69979e-37 0 -0 0 0)
(2.14589e-05 -4.55948e-21 -0 -4.52165e-21 9.60737e-37 0 -0 0 0)
(2.14585e-05 -4.14364e-21 -0 -4.93688e-21 9.5331e-37 0 -0 0 0)
(2.1458e-05 -3.84219e-21 -0 -4.80042e-21 8.59543e-37 0 -0 0 0)
(2.14579e-05 -2.66214e-21 -0 -3.9857e-21 4.94481e-37 0 -0 0 0)
(2.14577e-05 -8.65408e-22 -0 -1.92607e-21 7.768e-38 0 -0 0 0)
(2.14576e-05 -1.21645e-21 -0 -1.17946e-21 6.68646e-38 0 -0 0 0)
(2.15699e-05 6.31353e-14 -0 6.22036e-14 1.8207e-22 -0 -0 -0 0)
(2.15698e-05 -1.49779e-14 -0 -1.47569e-14 1.0247e-23 0 -0 0 0)
(2.15663e-05 3.55302e-15 -0 3.5006e-15 5.7672e-25 -0 -0 -0 0)
(2.15647e-05 -8.42814e-16 -0 -8.30383e-16 3.24539e-26 0 -0 0 0)
(2.15624e-05 1.99979e-16 -0 1.97028e-16 1.82732e-27 -0 -0 -0 0)
(2.15609e-05 -4.73896e-17 -0 -4.66913e-17 1.02625e-28 0 -0 0 0)
(2.15589e-05 1.12848e-17 -0 1.11194e-17 5.82035e-30 -0 -0 -0 0)
(2.15577e-05 -2.6416e-18 -0 -2.6022e-18 3.18865e-31 0 -0 0 0)
(2.1556e-05 6.51435e-19 -0 6.43187e-19 1.94375e-32 -0 -0 -0 0)
(2.1555e-05 -1.37179e-19 -0 -1.31628e-19 8.37701e-34 0 -0 0 0)
(2.15535e-05 4.82566e-20 -0 4.97495e-20 1.11385e-34 -0 -0 -0 0)
(2.15529e-05 1.31606e-21 -0 1.38133e-21 8.43467e-38 -0 -0 -0 0)
(2.15515e-05 7.40843e-21 -0 7.11601e-21 2.44616e-36 -0 -0 -0 0)
(2.15512e-05 1.97991e-21 -0 3.09782e-21 2.84597e-37 -0 -0 -0 0)
(2.15502e-05 1.9374e-21 -0 2.28295e-21 2.05241e-37 -0 -0 -0 0)
(2.155e-05 4.08552e-22 -0 1.75274e-22 3.32291e-39 -0 -0 -0 0)
(2.15494e-05 -1.69047e-21 -0 -3.77797e-21 2.96369e-37 0 -0 0 0)
(2.15492e-05 -3.83295e-21 -0 -4.07683e-21 7.25141e-37 0 -0 0 0)
(2.15491e-05 -2.35551e-23 -0 -1.24462e-21 1.36048e-39 0 -0 0 0)
(2.1549e-05 -6.61193e-22 -0 -4.81529e-22 1.47749e-38 0 -0 0 0)
(2.16673e-05 -6.32527e-14 -0 -6.23187e-14 1.81925e-22 0 -0 0 0)
(2.16672e-05 1.5006e-14 -0 1.47845e-14 1.02393e-23 -0 -0 -0 0)
(2.16635e-05 -3.55957e-15 -0 -3.50702e-15 5.76244e-25 0 -0 0 0)
(2.1662e-05 8.44541e-16 -0 8.32073e-16 3.24401e-26 -0 -0 -0 0)
(2.16597e-05 -2.00218e-16 -0 -1.97263e-16 1.82346e-27 0 -0 0 0)
(2.16582e-05 4.76085e-17 -0 4.69063e-17 1.03108e-28 -0 -0 -0 0)
(2.16562e-05 -1.11987e-17 -0 -1.10324e-17 5.70498e-30 0 -0 0 0)
(2.16549e-05 2.73413e-18 -0 2.69487e-18 3.40252e-31 -0 -0 -0 0)
(2.16533e-05 -5.87566e-19 -0 -5.7833e-19 1.56931e-32 0 -0 0 0)
(2.16522e-05 1.89485e-19 -0 1.88722e-19 1.65156e-33 -0 -0 -0 0)
(2.16509e-05 -5.37357e-21 -0 -3.70977e-21 9.20734e-37 0 -0 0 0)
(2.165e-05 3.21001e-20 -0 3.06847e-20 4.54958e-35 -0 -0 -0 0)
(2.16489e-05 1.22896e-20 -0 1.10492e-20 6.27239e-36 -0 -0 -0 0)
(2.16483e-05 8.80298e-21 -0 8.59311e-21 3.49427e-36 -0 -0 -0 0)
(2.16475e-05 6.43575e-21 -0 6.77364e-21 2.01378e-36 -0 -0 -0 0)
(2.16471e-05 4.23845e-21 -0 5.81734e-21 1.13902e-36 -0 -0 -0 0)
(2.16467e-05 2.19732e-21 -0 3.19695e-21 3.24518e-37 -0 -0 -0 0)
(2.16464e-05 1.4679e-21 -0 1.21927e-21 8.26818e-38 -0 -0 -0 0)
(2.16463e-05 1.41296e-21 -0 -4.99744e-22 -3.26207e-38 0 -0 -0 0)
(2.16462e-05 -1.01869e-21 -0 -4.0049e-22 1.88475e-38 0 -0 0 0)
(2.17752e-05 6.34019e-14 -0 6.24651e-14 1.81877e-22 -0 -0 -0 0)
(2.17751e-05 -1.50418e-14 -0 -1.48195e-14 1.0237e-23 0 -0 0 0)
(2.17713e-05 3.56828e-15 -0 3.51557e-15 5.76198e-25 -0 -0 -0 0)
(2.17698e-05 -8.46323e-16 -0 -8.33823e-16 3.24157e-26 0 -0 0 0)
(2.17676e-05 2.00964e-16 -0 1.97993e-16 1.82792e-27 -0 -0 -0 0)
(2.17658e-05 -4.74971e-17 -0 -4.6796e-17 1.02118e-28 0 -0 0 0)
(2.17641e-05 1.1418e-17 -0 1.12505e-17 5.90229e-30 -0 -0 -0 0)
(2.17625e-05 -2.58626e-18 -0 -2.54664e-18 3.02643e-31 0 -0 0 0)
(2.1761e-05 7.09769e-19 -0 6.98466e-19 2.27816e-32 -0 -0 -0 0)
(2.17598e-05 -9.47166e-20 -0 -9.39305e-20 4.08863e-34 0 -0 0 0)
(2.17585e-05 7.6666e-20 -0 7.82237e-20 2.75621e-34 -0 -0 -0 0)
(2.17576e-05 2.50469e-20 -0 2.60769e-20 3.00192e-35 -0 -0 -0 0)
(2.17566e-05 2.89256e-20 -0 2.81538e-20 3.74309e-35 -0 -0 -0 0)
(2.17559e-05 1.9573e-20 -0 1.80441e-20 1.62336e-35 -0 -0 -0 0)
(2.17552e-05 1.2575e-20 -0 1.21035e-20 6.99612e-36 -0 -0 -0 0)
(2.17547e-05 7.35275e-21 -0 8.41112e-21 2.84283e-36 -0 -0 -0 0)
(2.17543e-05 4.91623e-21 -0 7.17357e-21 1.62115e-36 -0 -0 -0 0)
(2.1754e-05 5.32523e-21 -0 4.92897e-21 1.20658e-36 -0 -0 -0 0)
(2.17538e-05 2.59582e-21 -0 2.21354e-22 2.64134e-38 -0 -0 -0 0)
(2.17538e-05 -9.28629e-22 -0 -4.86219e-22 2.07558e-38 0 -0 0 0)
(2.18971e-05 -6.36018e-14 -0 -6.26613e-14 1.82005e-22 0 -0 0 0)
(2.18972e-05 1.50898e-14 -0 1.48667e-14 1.02449e-23 -0 -0 -0 0)
(2.1893e-05 -3.57923e-15 -0 -3.52631e-15 5.76507e-25 0 -0 0 0)
(2.18918e-05 8.49432e-16 -0 8.36876e-16 3.24719e-26 -0 -0 -0 0)
(2.18893e-05 -2.01201e-16 -0 -1.98228e-16 1.82206e-27 0 -0 0 0)
(2.18877e-05 4.79993e-17 -0 4.72903e-17 1.03707e-28 -0 -0 -0 0)
(2.18858e-05 -1.11661e-17 -0 -1.10007e-17 5.6125e-30 0 -0 0 0)
(2.18844e-05 2.82393e-18 -0 2.78248e-18 3.59047e-31 -0 -0 -0 0)
(2.18828e-05 -5.35405e-19 -0 -5.27498e-19 1.29063e-32 0 -0 0 0)
(2.18816e-05 2.26138e-19 -0 2.22499e-19 2.29945e-33 -0 -0 -0 0)
(2.18803e-05 1.8619e-20 -0 1.88038e-20 1.60011e-35 -0 -0 -0 0)
(2.18793e-05 4.95125e-20 -0 4.86091e-20 1.10002e-34 -0 -0 -0 0)
(2.18782e-05 2.95146e-20 -0 2.74949e-20 3.70917e-35 -0 -0 -0 0)
(2.18776e-05 2.40313e-20 -0 2.22346e-20 2.44234e-35 -0 -0 -0 0)
(2.18768e-05 1.53263e-20 -0 1.36156e-20 9.53874e-36 -0 -0 -0 0)
(2.18764e-05 8.05378e-21 -0 7.99798e-21 2.94445e-36 -0 -0 -0 0)
(2.18759e-05 6.37166e-21 -0 7.54491e-21 2.19756e-36 -0 -0 -0 0)
(2.18757e-05 4.70096e-21 -0 4.34162e-21 9.32987e-37 -0 -0 -0 0)
(2.18755e-05 2.00239e-21 -0 1.48047e-21 1.35515e-37 -0 -0 -0 0)
(2.18755e-05 -8.65564e-22 -0 8.61593e-24 -3.40913e-40 -0 -0 0 0)
(2.20356e-05 6.38428e-14 -0 6.28979e-14 1.82232e-22 -0 -0 -0 0)
(2.20355e-05 -1.51471e-14 -0 -1.49229e-14 1.02579e-23 0 -0 0 0)
(2.20316e-05 3.59361e-15 -0 3.54044e-15 5.77488e-25 -0 -0 -0 0)
(2.203e-05 -8.52084e-16 -0 -8.39477e-16 3.24695e-26 0 -0 0 0)
(2.20278e-05 2.02585e-16 -0 1.99589e-16 1.83558e-27 -0 -0 -0 0)
(2.2026e-05 -4.76906e-17 -0 -4.69849e-17 1.01732e-28 0 -0 0 0)
(2.20242e-05 1.16077e-17 -0 1.14342e-17 6.02632e-30 -0 -0 -0 0)
(2.20226e-05 -2.53438e-18 -0 -2.49881e-18 2.87565e-31 0 -0 0 0)
(2.20211e-05 7.60073e-19 -0 7.49172e-19 2.58582e-32 -0 -0 -0 0)
(2.20198e-05 -6.56045e-20 -0 -6.37632e-20 1.89972e-34 0 -0 0 0)
(2.20185e-05 9.94061e-20 -0 9.64938e-20 4.35637e-34 -0 -0 -0 0)
(2.20176e-05 3.60206e-20 -0 3.36991e-20 5.51314e-35 -0 -0 -0 0)
(2.20165e-05 3.21984e-20 -0 3.08092e-20 4.50575e-35 -0 -0 -0 0)
(2.20158e-05 2.19522e-20 -0 2.10333e-20 2.09726e-35 -0 -0 -0 0)
(2.20151e-05 1.79878e-20 -0 1.71313e-20 1.39975e-35 -0 -0 -0 0)
(2.20146e-05 1.32325e-20 -0 1.23339e-20 7.41365e-36 -0 -0 -0 0)
(2.20141e-05 1.03028e-20 -0 9.4324e-21 4.41445e-36 -0 -0 -0 0)
(2.20139e-05 5.75323e-21 -0 6.89309e-21 1.80148e-36 -0 -0 -0 0)
(2.20137e-05 3.66954e-21 -0 5.49367e-21 9.15757e-37 -0 -0 -0 0)
(2.20137e-05 8.16749e-22 -0 1.90354e-21 7.06249e-38 -0 -0 -0 0)
(2.21889e-05 -6.41387e-14 -0 -6.31885e-14 1.82652e-22 0 -0 0 0)
(2.21888e-05 1.52181e-14 -0 1.49927e-14 1.02827e-23 -0 -0 -0 0)
(2.21849e-05 -3.60925e-15 -0 -3.55579e-15 5.7849e-25 0 -0 0 0)
(2.21834e-05 8.57014e-16 -0 8.44323e-16 3.26188e-26 -0 -0 -0 0)
(2.21807e-05 -2.02647e-16 -0 -1.99648e-16 1.82402e-27 0 -0 0 0)
(2.21794e-05 4.85715e-17 -0 4.78507e-17 1.0479e-28 -0 -0 -0 0)
(2.21771e-05 -1.11614e-17 -0 -1.09986e-17 5.53542e-30 0 -0 0 0)
(2.2176e-05 2.89844e-18 -0 2.85418e-18 3.73046e-31 -0 -0 -0 0)
(2.2174e-05 -5.15418e-19 -0 -5.0836e-19 1.18164e-32 0 -0 0 0)
(2.21731e-05 2.41387e-19 -0 2.37774e-19 2.58852e-33 -0 -0 -0 0)
(2.21715e-05 2.57969e-20 -0 2.43428e-20 2.83233e-35 -0 -0 -0 0)
(2.21707e-05 4.98714e-20 -0 4.89462e-20 1.10101e-34 -0 -0 -0 0)
(2.21695e-05 2.6205e-20 -0 2.72996e-20 3.22689e-35 -0 -0 -0 0)
(2.21689e-05 2.27086e-20 -0 2.3259e-20 2.38252e-35 -0 -0 -0 0)
(2.2168e-05 1.73225e-20 -0 1.80074e-20 1.40714e-35 -0 -0 -0 0)
(2.21677e-05 1.5326e-20 -0 1.47028e-20 1.0165e-35 -0 -0 -0 0)
(2.21671e-05 1.01593e-20 -0 9.66024e-21 4.42735e-36 -0 -0 -0 0)
(2.21669e-05 6.1658e-21 -0 7.41304e-21 2.06196e-36 -0 -0 -0 0)
(2.21668e-05 3.35362e-21 -0 4.4003e-21 6.65724e-37 -0 -0 -0 0)
(2.21667e-05 2.91274e-22 -0 1.20295e-21 1.5807e-38 -0 -0 -0 0)
(2.23459e-05 6.44251e-14 -0 6.34697e-14 1.82988e-22 -0 -0 -0 0)
(2.23458e-05 -1.52861e-14 -0 -1.50594e-14 1.03017e-23 0 -0 0 0)
(2.23419e-05 3.62804e-15 -0 3.57425e-15 5.80415e-25 -0 -0 -0 0)
(2.23402e-05 -8.59471e-16 -0 -8.46726e-16 3.25752e-26 0 -0 0 0)
(2.23378e-05 2.0488e-16 -0 2.01845e-16 1.8513e-27 -0 -0 -0 0)
(2.23361e-05 -4.80076e-17 -0 -4.72957e-17 1.01654e-28 0 -0 0 0)
(2.23342e-05 1.17834e-17 -0 1.16086e-17 6.12464e-30 -0 -0 -0 0)
(2.23326e-05 -2.54503e-18 -0 -2.50707e-18 2.85707e-31 0 -0 0 0)
(2.2331e-05 7.70486e-19 -0 7.58007e-19 2.61535e-32 -0 -0 -0 0)
(2.23297e-05 -7.18553e-20 -0 -7.29071e-20 2.34609e-34 0 -0 0 0)
(2.23284e-05 9.11728e-20 -0 8.71365e-20 3.55802e-34 -0 -0 -0 0)
(2.23274e-05 2.62671e-20 -0 2.53575e-20 2.98319e-35 -0 -0 -0 0)
(2.23263e-05 2.65198e-20 -0 2.85616e-20 3.39263e-35 -0 -0 -0 0)
(2.23256e-05 1.89132e-20 -0 2.00154e-20 1.69561e-35 -0 -0 -0 0)
(2.23248e-05 1.36404e-20 -0 1.40627e-20 8.59224e-36 -0 -0 -0 0)
(2.23243e-05 9.83475e-21 -0 1.05028e-20 4.62689e-36 -0 -0 -0 0)
(2.23239e-05 7.3964e-21 -0 7.71517e-21 2.55621e-36 -0 -0 -0 0)
(2.23236e-05 3.95377e-21 -0 4.87434e-21 8.63302e-37 -0 -0 -0 0)
(2.23235e-05 1.29416e-21 -0 1.93411e-21 1.12127e-37 -0 -0 -0 0)
(2.23234e-05 -7.3109e-22 -0 1.0344e-21 -3.38764e-38 -0 -0 0 0)
(2.24807e-05 -6.46786e-14 -0 -6.37184e-14 1.83322e-22 0 -0 0 0)
(2.24807e-05 1.53495e-14 -0 1.51216e-14 1.03248e-23 -0 -0 -0 0)
(2.2477e-05 -3.63572e-15 -0 -3.58175e-15 5.7936e-25 0 -0 0 0)
(2.24754e-05 8.64181e-16 -0 8.51359e-16 3.27349e-26 -0 -0 -0 0)
(2.24729e-05 -2.03747e-16 -0 -2.00723e-16 1.81983e-27 0 -0 0 0)
(2.24714e-05 4.88381e-17 -0 4.81145e-17 1.0457e-28 -0 -0 -0 0)
(2.24693e-05 -1.12524e-17 -0 -1.10859e-17 5.55169e-30 0 -0 0 0)
(2.24679e-05 2.85204e-18 -0 2.80962e-18 3.56649e-31 -0 -0 -0 0)
(2.24662e-05 -5.57536e-19 -0 -5.48435e-19 1.36103e-32 0 -0 0 0)
(2.2465e-05 2.08229e-19 -0 2.05509e-19 1.90486e-33 -0 -0 -0 0)
(2.24636e-05 4.76731e-21 -0 4.1099e-21 8.72216e-37 -0 -0 -0 0)
(2.24627e-05 3.66448e-20 -0 3.4899e-20 5.69328e-35 -0 -0 -0 0)
(2.24616e-05 1.85054e-20 -0 1.80364e-20 1.48596e-35 -0 -0 -0 0)
(2.24609e-05 1.44045e-20 -0 1.50542e-20 9.65445e-36 -0 -0 -0 0)
(2.24601e-05 9.72893e-21 -0 1.18481e-20 5.1322e-36 -0 -0 -0 0)
(2.24597e-05 7.98662e-21 -0 7.52538e-21 2.67601e-36 -0 -0 -0 0)
(2.24592e-05 5.72108e-21 -0 3.89968e-21 9.93374e-37 -0 -0 -0 0)
(2.24589e-05 1.11869e-21 -0 1.49451e-21 7.44419e-38 -0 -0 -0 0)
(2.24588e-05 1.70924e-22 -0 8.97857e-22 6.83319e-39 -0 -0 -0 0)
(2.24587e-05 -8.73219e-22 -0 9.07972e-22 -3.5303e-38 -0 -0 0 0)
(2.25394e-05 6.46887e-14 -0 6.37274e-14 1.829e-22 -0 -0 -0 0)
(2.25393e-05 -1.53339e-14 -0 -1.51059e-14 1.02768e-23 0 -0 0 0)
(2.25392e-05 3.6423e-15 -0 3.58816e-15 5.79841e-25 -0 -0 -0 0)
(2.25392e-05 -8.63106e-16 -0 -8.50272e-16 3.25599e-26 0 -0 0 0)
(2.25391e-05 2.05346e-16 -0 2.02292e-16 1.84301e-27 -0 -0 -0 0)
(2.25391e-05 -4.85304e-17 -0 -4.78092e-17 1.02941e-28 0 -0 0 0)
(2.25391e-05 1.16439e-17 -0 1.14697e-17 5.92537e-30 -0 -0 -0 0)
(2.25391e-05 -2.69736e-18 -0 -2.65805e-18 3.18101e-31 0 -0 0 0)
(2.2539e-05 6.81302e-19 -0 6.72381e-19 2.03245e-32 -0 -0 -0 0)
(2.2539e-05 -1.35743e-19 -0 -1.32014e-19 7.95064e-34 0 -0 0 0)
(2.2539e-05 5.27545e-20 -0 5.2677e-20 1.23295e-34 -0 -0 -0 0)
(2.2539e-05 2.92872e-21 -0 1.74708e-21 2.27016e-37 -0 -0 -0 0)
(2.2539e-05 1.05012e-20 -0 8.73586e-21 4.07016e-36 -0 -0 -0 0)
(2.2539e-05 3.76384e-21 -0 4.90874e-21 8.19724e-37 -0 -0 -0 0)
(2.2539e-05 4.22017e-21 -0 6.60172e-21 1.2361e-36 -0 -0 -0 0)
(2.2539e-05 4.80295e-21 -0 4.29565e-21 9.15384e-37 -0 -0 -0 0)
(2.2539e-05 3.10535e-21 -0 1.44602e-21 1.99228e-37 -0 -0 -0 0)
(2.2539e-05 1.12931e-22 -0 -3.21289e-22 -1.60981e-39 0 -0 -0 0)
(2.2539e-05 -2.32406e-22 -0 -1.00839e-23 1.03978e-40 0 -0 0 0)
(2.2539e-05 -5.5086e-22 -0 -1.90355e-22 4.65233e-39 0 -0 0 0)
)
;

boundaryField
{
    movingWall
    {
        type            calculated;
        value           nonuniform List<tensor> 
20
(
(2.25394e-05 0 0 0 0 0 0 0 0)
(2.25393e-05 0 0 0 0 0 0 0 0)
(2.25392e-05 0 0 0 0 0 0 0 0)
(2.25392e-05 0 0 0 0 0 0 0 0)
(2.25391e-05 0 0 0 0 0 0 0 0)
(2.25391e-05 0 0 0 0 0 0 0 0)
(2.25391e-05 0 0 0 0 0 0 0 0)
(2.25391e-05 0 0 0 0 0 0 0 0)
(2.2539e-05 0 0 0 0 0 0 0 0)
(2.2539e-05 0 0 0 0 0 0 0 0)
(2.2539e-05 0 0 0 0 0 0 0 0)
(2.2539e-05 0 0 0 0 0 0 0 0)
(2.2539e-05 0 0 0 0 0 0 0 0)
(2.2539e-05 0 0 0 0 0 0 0 0)
(2.2539e-05 0 0 0 0 0 0 0 0)
(2.2539e-05 0 0 0 0 0 0 0 0)
(2.2539e-05 0 0 0 0 0 0 0 0)
(2.2539e-05 0 0 0 0 0 0 0 0)
(2.2539e-05 0 0 0 0 0 0 0 0)
(2.2539e-05 0 0 0 0 0 0 0 0)
)
;
    }
    fixedWalls
    {
        type            calculated;
        value           nonuniform List<tensor> 
60
(
(1.437e-05 0 0 0 0 0 0 0 0)
(1.57032e-05 0 0 0 0 0 0 0 0)
(1.74694e-05 0 0 0 0 0 0 0 0)
(1.89575e-05 0 0 0 0 0 0 0 0)
(1.99665e-05 0 0 0 0 0 0 0 0)
(2.05778e-05 0 0 0 0 0 0 0 0)
(2.09326e-05 0 0 0 0 0 0 0 0)
(2.11435e-05 0 0 0 0 0 0 0 0)
(2.12814e-05 0 0 0 0 0 0 0 0)
(2.1386e-05 0 0 0 0 0 0 0 0)
(2.14784e-05 0 0 0 0 0 0 0 0)
(2.15699e-05 0 0 0 0 0 0 0 0)
(2.16673e-05 0 0 0 0 0 0 0 0)
(2.17752e-05 0 0 0 0 0 0 0 0)
(2.18971e-05 0 0 0 0 0 0 0 0)
(2.20356e-05 0 0 0 0 0 0 0 0)
(2.21889e-05 0 0 0 0 0 0 0 0)
(2.23459e-05 0 0 0 0 0 0 0 0)
(2.24807e-05 0 0 0 0 0 0 0 0)
(2.25394e-05 0 0 0 0 0 0 0 0)
(1.43697e-05 0 0 0 0 0 0 0 0)
(1.56924e-05 0 0 0 0 0 0 0 0)
(1.74559e-05 0 0 0 0 0 0 0 0)
(1.89415e-05 0 0 0 0 0 0 0 0)
(1.99487e-05 0 0 0 0 0 0 0 0)
(2.05588e-05 0 0 0 0 0 0 0 0)
(2.09129e-05 0 0 0 0 0 0 0 0)
(2.11234e-05 0 0 0 0 0 0 0 0)
(2.1261e-05 0 0 0 0 0 0 0 0)
(2.13654e-05 0 0 0 0 0 0 0 0)
(2.14576e-05 0 0 0 0 0 0 0 0)
(2.1549e-05 0 0 0 0 0 0 0 0)
(2.16462e-05 0 0 0 0 0 0 0 0)
(2.17538e-05 0 0 0 0 0 0 0 0)
(2.18755e-05 0 0 0 0 0 0 0 0)
(2.20137e-05 0 0 0 0 0 0 0 0)
(2.21667e-05 0 0 0 0 0 0 0 0)
(2.23234e-05 0 0 0 0 0 0 0 0)
(2.24587e-05 0 0 0 0 0 0 0 0)
(2.2539e-05 0 0 0 0 0 0 0 0)
(1.437e-05 0 0 0 0 0 0 0 0)
(1.437e-05 0 0 0 0 0 0 0 0)
(1.43698e-05 0 0 0 0 0 0 0 0)
(1.437e-05 0 0 0 0 0 0 0 0)
(1.43698e-05 0 0 0 0 0 0 0 0)
(1.43699e-05 0 0 0 0 0 0 0 0)
(1.43697e-05 0 0 0 0 0 0 0 0)
(1.43698e-05 0 0 0 0 0 0 0 0)
(1.43698e-05 0 0 0 0 0 0 0 0)
(1.43698e-05 0 0 0 0 0 0 0 0)
(1.43698e-05 0 0 0 0 0 0 0 0)
(1.43697e-05 0 0 0 0 0 0 0 0)
(1.43697e-05 0 0 0 0 0 0 0 0)
(1.43697e-05 0 0 0 0 0 0 0 0)
(1.43697e-05 0 0 0 0 0 0 0 0)
(1.43697e-05 0 0 0 0 0 0 0 0)
(1.43697e-05 0 0 0 0 0 0 0 0)
(1.43697e-05 0 0 0 0 0 0 0 0)
(1.43697e-05 0 0 0 0 0 0 0 0)
(1.43697e-05 0 0 0 0 0 0 0 0)
)
;
    }
    frontAndBack
    {
        type            empty;
    }
}


// ************************************************************************* //
