/*--------------------------------*- C++ -*----------------------------------*\
| =========                 |                                                 |
| \\      /  F ield         | OpenFOAM: The Open Source CFD Toolbox           |
|  \\    /   O peration     | Version:  2506                                  |
|   \\  /    A nd           | Website:  www.openfoam.com                      |
|    \\/     M anipulation  |                                                 |
\*---------------------------------------------------------------------------*/
FoamFile
{
    version     2.0;
    format      ascii;
    arch        "LSB;label=32;scalar=64";
    class       volScalarField;
    location    "5";
    object      Lambda2Field;
}
// * * * * * * * * * * * * * * * * * * * * * * * * * * * * * * * * * * * * * //

dimensions      [0 0 -2 0 0 0 0];

internalField   nonuniform List<scalar> 
400
(
6.58504e-19
-5.56086e-17
-4.96067e-18
-8.42225e-19
-1.86826e-20
-9.35582e-21
4.6396e-22
-1.51619e-22
1.89763e-23
-3.32346e-24
5.97801e-25
-6.29733e-26
2.81619e-26
5.59792e-27
5.64011e-27
4.58273e-27
2.9933e-27
4.56683e-28
0
2.51518e-28
2.87528e-16
1.23516e-17
2.01356e-18
-4.67389e-19
-4.1382e-21
-4.96928e-21
1.09995e-22
-5.37836e-23
4.96357e-24
-7.43608e-25
2.19328e-25
2.27242e-26
3.36925e-26
9.67706e-27
4.37955e-27
1.60334e-27
1.56101e-27
5.02581e-28
1.01788e-28
8.10084e-30
3.87094e-16
9.50902e-17
8.56953e-18
5.34409e-19
1.98929e-20
4.40481e-21
-1.65789e-22
5.79922e-23
-5.29488e-24
1.09214e-24
-4.70054e-26
5.39142e-26
1.08042e-26
6.39118e-27
6.27171e-27
1.45511e-27
0
1.29577e-27
0
0
1.82808e-16
4.58239e-17
3.51252e-18
1.89815e-19
1.61999e-20
-3.52927e-22
2.57458e-22
-3.56484e-23
7.36515e-24
-8.33398e-25
2.05908e-25
1.11238e-26
1.81077e-26
7.53656e-27
4.21659e-27
0
0
0
0
0
8.26203e-17
1.99099e-17
1.46632e-18
8.54292e-20
3.03814e-21
9.37123e-22
-1.13144e-22
2.46098e-23
-3.66421e-24
8.54581e-25
-7.57938e-26
6.63991e-26
1.18089e-26
1.27606e-26
6.21822e-27
3.27193e-27
3.0371e-27
8.25389e-29
6.66921e-29
0
-8.95354e-19
0
-1.74334e-19
0
0
-2.81528e-22
8.00083e-23
-1.98527e-23
4.30429e-24
-6.65659e-25
2.43582e-25
0
1.70255e-26
7.61827e-27
5.05349e-27
3.13382e-27
3.99281e-27
3.15161e-27
1.44406e-28
0
-3.04205e-17
-4.92539e-18
-6.74231e-19
-2.95981e-20
-2.24081e-21
-2.17998e-23
-4.55168e-23
1.09045e-23
-2.43579e-24
8.40694e-25
-5.93679e-26
3.22385e-26
1.1801e-26
9.45395e-27
6.35457e-27
6.01952e-29
-2.64732e-27
7.34684e-28
0
0
-4.99218e-17
-9.99524e-18
-1.14788e-18
-5.08022e-20
-3.79495e-21
-3.59833e-22
2.30474e-23
-1.18641e-23
1.37697e-24
-3.0431e-25
2.27226e-26
6.14742e-27
9.02393e-27
6.27295e-27
5.98614e-27
3.68372e-27
4.58319e-27
0
0
5.39066e-28
-5.61062e-17
-1.2042e-17
-1.24153e-18
-6.48942e-20
-3.94952e-21
-3.50437e-22
1.24459e-26
-4.36569e-24
6.61216e-27
-8.02011e-26
0
1.45129e-26
6.00825e-27
3.4608e-27
0
2.59106e-27
0
5.8439e-30
-6.7445e-28
-1.46995e-28
-5.88769e-17
-1.29575e-17
-1.34268e-18
-6.23679e-20
-5.32826e-21
-2.58833e-22
-3.28164e-23
-2.58171e-24
3.78531e-25
6.61216e-27
7.80728e-26
1.51867e-26
1.17549e-26
7.64798e-27
2.43709e-27
0
-1.95011e-28
-5.81488e-28
5.20125e-28
5.02167e-28
-5.73145e-17
-1.28982e-17
-1.29114e-18
-6.42596e-20
-4.75315e-21
-3.01818e-22
-3.63594e-23
1.24366e-25
-1.212e-24
1.8441e-25
0
1.96219e-26
6.61216e-27
6.61216e-27
3.09769e-27
7.34684e-28
4.81315e-29
7.44155e-28
5.44439e-29
0
-5.19806e-17
-1.19191e-17
-1.15185e-18
-6.11271e-20
-4.23532e-21
-2.73229e-22
-2.35802e-23
2.6526e-24
-1.07721e-24
1.75688e-25
0
2.75895e-26
6.30287e-27
2.33091e-27
2.00662e-27
7.34684e-28
3.09703e-28
0
0
0
-4.68696e-17
-1.07331e-17
-1.06759e-18
-5.2006e-20
-4.02519e-21
-2.91031e-22
1.10794e-23
-7.35393e-24
1.58019e-24
-3.99539e-25
5.61277e-26
1.03078e-26
9.29009e-27
5.23639e-27
2.72373e-27
4.47824e-28
2.55098e-27
1.66046e-27
4.61486e-29
-1.12726e-28
-3.604e-17
-8.43053e-18
-7.84323e-19
-4.41941e-20
-2.8849e-21
-9.69838e-23
-5.17063e-23
9.19896e-24
-2.31969e-24
5.59153e-25
-1.08968e-25
5.63662e-26
8.57186e-27
1.18343e-26
2.15782e-27
0
8.67674e-28
-9.9776e-28
0
3.57041e-30
-3.08552e-17
-6.9445e-18
-7.36587e-19
-3.51816e-20
-1.9679e-21
-4.80655e-22
5.51666e-23
-1.38085e-23
3.17726e-24
-3.58987e-25
1.56975e-25
-3.2054e-27
1.63358e-26
0
-1.27176e-27
0
0
-1.67186e-29
0
-6.60841e-29
-1.21799e-17
-2.91744e-18
-2.45942e-19
-1.15146e-20
-2.25995e-21
4.16837e-22
-1.01456e-22
2.23555e-23
-3.27026e-24
7.2595e-25
-5.94182e-26
2.42565e-26
3.12447e-27
6.73512e-27
3.21287e-27
3.72955e-27
7.52486e-28
1.45484e-27
1.39986e-27
9.10804e-28
-1.95147e-17
-4.30686e-18
-4.86055e-19
-3.34985e-20
1.46588e-21
-9.87242e-22
1.53972e-22
-2.54543e-23
4.79693e-24
-6.49805e-25
1.40796e-25
0
9.42055e-27
3.44246e-27
3.35785e-27
1.02057e-27
0
7.32979e-28
0
1.61073e-29
1.87655e-17
2.94015e-18
4.91313e-19
8.37925e-20
-5.68616e-21
1.84932e-21
-2.00146e-22
3.5688e-23
-4.11399e-24
7.57678e-25
-4.1274e-26
3.27189e-26
3.32801e-27
2.4948e-27
-3.43745e-28
1.07711e-27
1.37062e-27
0
4.6624e-28
0
-1.56127e-16
-9.25426e-17
-7.91953e-18
-8.96994e-19
-4.2861e-20
-6.45239e-21
-1.03342e-22
-5.56085e-23
2.9965e-24
-7.32773e-25
1.68594e-25
0
1.51345e-26
6.10008e-27
2.55167e-27
0
0
0
0
0
-2.07107e-16
-1.02931e-16
-9.48315e-18
-9.90088e-19
-4.19404e-20
-8.67116e-21
1.65297e-22
-1.13758e-22
1.18373e-23
-2.35102e-24
3.85226e-25
-5.26578e-26
1.79769e-26
4.81562e-27
6.31724e-27
1.52304e-27
0
3.50218e-28
0
0
)
;

boundaryField
{
    movingWall
    {
        type            calculated;
        value           nonuniform List<scalar> 
20
(
1.84596e-16
0
0
0
0
0
1.8151e-22
0
2.6283e-23
-4.94043e-25
8.53192e-25
-1.64023e-25
2.70884e-26
1.98675e-27
5.76657e-27
0
0
5.73796e-28
0
0
)
;
    }
    fixedWalls
    {
        type            calculated;
        value           nonuniform List<scalar> 
60
(
3.26881e-18
1.50874e-15
2.03061e-15
9.5595e-16
4.24083e-16
0
-1.05673e-16
-2.16805e-16
-2.54881e-16
-2.77952e-16
-2.74725e-16
-2.53314e-16
-2.29503e-16
-1.77293e-16
-1.51061e-16
-5.65695e-17
-9.36146e-17
9.72601e-17
-8.05493e-16
-1.08763e-15
0
8.10084e-30
0
0
0
0
0
7.55412e-28
8.0754e-29
4.30749e-28
3.02196e-30
0
-2.00595e-28
3.57041e-30
0
9.37518e-28
1.61073e-29
0
0
0
0
0
0
0
0
0
5.91663e-22
0
4.14691e-23
-3.12632e-24
1.26857e-24
-2.44757e-25
3.03784e-26
-4.56793e-27
4.10949e-27
2.74538e-27
2.17371e-27
2.79208e-28
0
7.34684e-28
)
;
    }
    frontAndBack
    {
        type            empty;
    }
}


// ************************************************************************* //
