/*--------------------------------*- C++ -*----------------------------------*\
| =========                 |                                                 |
| \\      /  F ield         | OpenFOAM: The Open Source CFD Toolbox           |
|  \\    /   O peration     | Version:  2506                                  |
|   \\  /    A nd           | Website:  www.openfoam.com                      |
|    \\/     M anipulation  |                                                 |
\*---------------------------------------------------------------------------*/
FoamFile
{
    version     2.0;
    format      ascii;
    arch        "LSB;label=32;scalar=64";
    class       volVectorField;
    location    "5";
    object      LambVectorField;
}
// * * * * * * * * * * * * * * * * * * * * * * * * * * * * * * * * * * * * * //

dimensions      [0 1 -2 0 0 0 0];

internalField   nonuniform List<vector> 
400
(
(-6.62254e-16 -2.24745e-07 0)
(-1.94553e-16 2.78247e-07 -0)
(-1.09802e-17 -6.60559e-08 0)
(-6.20146e-19 1.57373e-08 -0)
(-3.49787e-20 -3.72432e-09 0)
(-1.98859e-21 8.9641e-10 -0)
(-1.10795e-22 -2.07333e-10 0)
(-6.56171e-24 5.32984e-11 -0)
(-3.22586e-25 -1.01579e-11 0)
(-2.40093e-26 4.13066e-12 -0)
(4.7689e-28 1.8011e-13 0)
(1.92855e-28 7.81149e-13 0)
(2.12583e-28 4.02362e-13 0)
(7.78013e-29 2.69185e-13 0)
(5.37701e-29 1.94859e-13 0)
(3.48152e-29 1.46409e-13 0)
(1.12168e-29 6.71247e-14 0)
(4.05925e-30 3.73615e-14 0)
(2.3497e-31 3.6407e-15 0)
(9.88119e-31 1.36781e-14 0)
(-6.60312e-16 2.23718e-07 -0)
(-1.95376e-16 -2.78484e-07 0)
(-1.1e-17 6.61679e-08 -0)
(-6.22355e-19 -1.57209e-08 0)
(-3.48606e-20 3.73528e-09 -0)
(-1.9932e-21 -8.87464e-10 0)
(-1.08458e-22 2.10786e-10 -0)
(-6.66338e-24 -5.01215e-11 0)
(-2.89771e-25 1.18572e-11 -0)
(-3.0464e-26 -2.88001e-12 0)
(5.46884e-28 6.5259e-13 0)
(-3.51195e-28 -1.63006e-13 0)
(2.93761e-29 2.63976e-14 0)
(1.87665e-30 2.32746e-15 0)
(-1.51271e-29 -2.76318e-14 0)
(-3.81786e-29 -7.06326e-14 0)
(1.48969e-30 3.38082e-15 0)
(7.4949e-30 3.18031e-14 0)
(1.83056e-30 1.49314e-14 0)
(1.80433e-30 2.08951e-14 0)
(-6.59112e-16 -2.23321e-07 0)
(-1.94988e-16 2.78151e-07 -0)
(-1.09927e-17 -6.60259e-08 0)
(-6.184e-19 1.56724e-08 -0)
(-3.50661e-20 -3.72014e-09 0)
(-1.94552e-21 8.83053e-10 -0)
(-1.14445e-22 -2.09645e-10 0)
(-5.70946e-24 4.971e-11 -0)
(-4.40585e-25 -1.17757e-11 0)
(-5.71173e-27 2.88792e-12 -0)
(-3.19338e-27 -6.04454e-13 0)
(4.96658e-28 2.2894e-13 0)
(2.94303e-29 1.54127e-14 0)
(1.24864e-28 1.03871e-13 0)
(1.97456e-29 2.2676e-14 0)
(2.37112e-29 3.36667e-14 0)
(1.984e-29 3.71464e-14 0)
(3.24917e-30 9.76222e-15 0)
(4.78178e-30 2.89052e-14 0)
(9.15896e-31 2.09209e-14 0)
(-6.61274e-16 2.24161e-07 -0)
(-1.94838e-16 -2.7822e-07 0)
(-1.09711e-17 6.60296e-08 -0)
(-6.1858e-19 -1.567e-08 0)
(-3.47086e-20 3.71886e-09 -0)
(-1.98008e-21 -8.82618e-10 0)
(-1.07161e-22 2.09478e-10 -0)
(-6.78567e-24 -4.97328e-11 0)
(-2.53369e-25 1.17546e-11 -0)
(-3.58202e-26 -2.76964e-12 0)
(1.90941e-27 7.29352e-13 0)
(-2.85626e-28 -8.22842e-14 0)
(2.19461e-28 1.0523e-13 0)
(3.74637e-30 2.33309e-15 0)
(5.15513e-29 4.12723e-14 0)
(5.81534e-29 6.30743e-14 0)
(4.85486e-29 7.85182e-14 0)
(1.66911e-29 4.09245e-14 0)
(7.22583e-30 3.45625e-14 0)
(1.68814e-30 2.71292e-14 0)
(-6.59602e-16 -2.24114e-07 0)
(-1.93929e-16 2.77668e-07 -0)
(-1.09215e-17 -6.58895e-08 0)
(-6.14517e-19 1.56348e-08 -0)
(-3.46988e-20 -3.70987e-09 0)
(-1.93467e-21 8.80346e-10 -0)
(-1.1261e-22 -2.08891e-10 0)
(-5.68518e-24 4.96911e-11 -0)
(-4.33776e-25 -1.16308e-11 0)
(-3.87807e-27 2.86194e-12 -0)
(-3.60734e-27 -6.04695e-13 0)
(4.47716e-28 1.6021e-13 0)
(-1.04905e-29 -4.25388e-15 0)
(4.38162e-30 2.49966e-15 0)
(-9.24705e-30 -6.81485e-15 0)
(5.34143e-30 5.29965e-15 0)
(-3.13193e-30 -4.11122e-15 0)
(2.30224e-29 4.54185e-14 0)
(1.2242e-29 3.97965e-14 0)
(4.53743e-30 4.16545e-14 0)
(-6.572e-16 2.23898e-07 -0)
(-1.9292e-16 -2.77006e-07 0)
(-1.08603e-17 6.57276e-08 -0)
(-6.11671e-19 -1.55952e-08 0)
(-3.43668e-20 3.70031e-09 -0)
(-1.94906e-21 -8.77881e-10 0)
(-1.06842e-22 2.08353e-10 -0)
(-6.56573e-24 -4.94162e-11 0)
(-2.65876e-25 1.17143e-11 -0)
(-3.38111e-26 -2.7715e-12 0)
(1.39206e-27 6.03214e-13 0)
(-6.57552e-28 -1.90213e-13 0)
(1.04247e-28 4.50796e-14 0)
(2.37802e-29 1.23731e-14 0)
(5.36635e-29 3.90102e-14 0)
(3.56168e-30 3.59863e-15 0)
(-2.56906e-29 -3.22123e-14 0)
(-1.76003e-30 -3.52921e-15 0)
(1.19291e-29 4.10314e-14 0)
(3.35095e-30 3.79119e-14 0)
(-6.53582e-16 -2.23351e-07 0)
(-1.91739e-16 2.76184e-07 -0)
(-1.07946e-17 -6.55301e-08 0)
(-6.07453e-19 1.55479e-08 -0)
(-3.42395e-20 -3.68885e-09 0)
(-1.91719e-21 8.75311e-10 -0)
(-1.10045e-22 -2.07577e-10 0)
(-5.76579e-24 4.92964e-11 -0)
(-4.08432e-25 -1.16676e-11 0)
(-6.67673e-27 2.72013e-12 -0)
(-3.2633e-27 -6.40616e-13 0)
(4.67491e-28 2.01045e-13 0)
(-1.78568e-28 -7.8651e-14 0)
(-3.72793e-29 -2.12229e-14 0)
(-6.90908e-30 -4.94065e-15 0)
(7.33099e-29 7.38406e-14 0)
(9.90088e-29 1.50011e-13 0)
(1.44533e-29 4.72562e-14 0)
(4.42734e-30 2.36193e-14 0)
(3.67899e-30 5.28154e-14 0)
(-6.49971e-16 2.22779e-07 -0)
(-1.90609e-16 -2.75383e-07 0)
(-1.07295e-17 6.53388e-08 -0)
(-6.04068e-19 -1.55022e-08 0)
(-3.39687e-20 3.678e-09 -0)
(-1.9194e-21 -8.72638e-10 0)
(-1.06411e-22 2.06969e-10 -0)
(-6.33161e-24 -4.9171e-11 0)
(-2.91499e-25 1.17214e-11 -0)
(-2.85433e-26 -2.72633e-12 0)
(8.28709e-28 7.97577e-13 0)
(-3.608e-28 -1.44685e-13 0)
(3.44995e-29 2.06246e-14 0)
(2.15428e-29 1.46123e-14 0)
(2.51693e-30 2.00463e-15 0)
(4.289e-29 4.7021e-14 0)
(8.36233e-30 1.62596e-14 0)
(7.98869e-30 3.85094e-14 0)
(1.78011e-30 1.37773e-14 0)
(-5.02842e-31 -7.21702e-15 0)
(-6.46102e-16 -2.2213e-07 0)
(-1.89447e-16 2.7455e-07 -0)
(-1.06645e-17 -6.51403e-08 0)
(-6.00204e-19 1.54551e-08 -0)
(-3.38004e-20 -3.66667e-09 0)
(-1.8983e-21 8.70077e-10 -0)
(-1.07729e-22 -2.06212e-10 0)
(-5.88087e-24 4.91568e-11 -0)
(-3.6729e-25 -1.15017e-11 0)
(-1.33414e-26 2.88891e-12 -0)
(-2.30349e-27 -6.4225e-13 0)
(2.01074e-28 1.59296e-13 0)
(7.16842e-29 4.93852e-14 0)
(9.67508e-29 9.30773e-14 0)
(1.21944e-28 1.54007e-13 0)
(2.38127e-29 4.08029e-14 0)
(1.31014e-29 3.41377e-14 0)
(7.74207e-30 3.1962e-14 0)
(3.33573e-30 5.19899e-14 0)
(-2.17566e-31 3.2859e-14 -0)
(-6.42372e-16 2.21495e-07 -0)
(-1.88344e-16 -2.7375e-07 0)
(-1.06021e-17 6.49508e-08 -0)
(-5.96774e-19 -1.54096e-08 0)
(-3.35821e-20 3.65623e-09 -0)
(-1.8921e-21 -8.67317e-10 0)
(-1.06103e-22 2.05922e-10 -0)
(-6.06286e-24 -4.88015e-11 0)
(-3.21843e-25 1.15843e-11 -0)
(-2.22398e-26 -2.73853e-12 0)
(-2.30899e-28 5.81132e-13 -0)
(-2.16171e-28 -1.44441e-13 0)
(5.79552e-29 7.46815e-14 0)
(2.32256e-29 3.0976e-14 0)
(2.88027e-29 6.17724e-14 0)
(8.93225e-30 2.21578e-14 0)
(1.74613e-29 7.136e-14 0)
(1.51771e-29 6.55251e-14 0)
(-1.04127e-30 -7.91581e-15 0)
(-3.96412e-31 -9.97775e-15 0)
(-6.38664e-16 -2.20851e-07 0)
(-1.87262e-16 2.72962e-07 -0)
(-1.05412e-17 -6.47635e-08 0)
(-5.93323e-19 1.53654e-08 -0)
(-3.33957e-20 -3.64558e-09 0)
(-1.87962e-21 8.64902e-10 -0)
(-1.05867e-22 -2.05301e-10 0)
(-5.93736e-24 4.86262e-11 -0)
(-3.43388e-25 -1.16768e-11 0)
(-1.72233e-26 2.68348e-12 -0)
(-1.38941e-27 -6.8418e-13 0)
(-2.39346e-29 2.0183e-13 -0)
(-8.03867e-30 -2.83527e-14 0)
(1.20095e-30 7.28112e-15 0)
(-7.08365e-30 -3.36177e-14 0)
(-2.99074e-31 -1.29995e-15 0)
(9.91497e-31 4.43203e-15 0)
(-7.58121e-30 -4.08151e-14 0)
(1.17389e-30 1.30779e-14 0)
(7.95522e-31 1.44728e-14 0)
(-6.35055e-16 2.20214e-07 -0)
(-1.86223e-16 -2.72199e-07 0)
(-1.04829e-17 6.45826e-08 -0)
(-5.90021e-19 -1.53226e-08 0)
(-3.32188e-20 3.6354e-09 -0)
(-1.86786e-21 -8.62534e-10 0)
(-1.05536e-22 2.0462e-10 -0)
(-5.85907e-24 -4.85389e-11 0)
(-3.45184e-25 1.15686e-11 -0)
(-1.64803e-26 -2.69877e-12 0)
(-1.612e-27 6.98386e-13 -0)
(9.20269e-30 -1.4359e-13 -0)
(-2.63e-30 7.9652e-15 -0)
(7.11956e-30 -4.953e-14 -0)
(7.17941e-30 -6.7771e-14 -0)
(2.28754e-31 -2.81253e-14 -0)
(-1.29633e-29 -7.39421e-14 0)
(2.22407e-30 1.1756e-14 0)
(9.63628e-31 1.66841e-14 0)
(1.78997e-31 8.01032e-15 0)
(-6.31623e-16 -2.19606e-07 0)
(-1.85238e-16 2.71473e-07 -0)
(-1.04272e-17 -6.44108e-08 0)
(-5.86998e-19 1.52818e-08 -0)
(-3.30216e-20 -3.6258e-09 0)
(-1.86292e-21 8.60174e-10 -0)
(-1.03963e-22 -2.04076e-10 0)
(-6.02756e-24 4.84351e-11 -0)
(-3.0548e-25 -1.14375e-11 0)
(-2.45475e-26 2.81636e-12 -0)
(-1.15772e-28 -6.75664e-13 0)
(-1.97894e-29 1.39627e-14 -0)
(5.20778e-29 -1.02037e-13 -0)
(-2.92043e-30 7.35733e-15 -0)
(-1.2951e-29 4.13895e-14 -0)
(-2.84411e-30 1.05833e-14 -0)
(3.13703e-30 -2.12409e-14 -0)
(-2.09155e-30 3.71326e-14 -0)
(-1.72755e-31 -7.48282e-15 0)
(5.78434e-31 3.12639e-14 0)
(-6.28178e-16 2.18981e-07 -0)
(-1.84266e-16 -2.70752e-07 0)
(-1.03733e-17 6.424e-08 -0)
(-5.83778e-19 -1.52415e-08 0)
(-3.2891e-20 3.61608e-09 -0)
(-1.84472e-21 -8.58019e-10 0)
(-1.0523e-22 2.03567e-10 -0)
(-5.65126e-24 -4.82934e-11 0)
(-3.68703e-25 1.14871e-11 -0)
(-1.14845e-26 -2.66047e-12 0)
(-2.76233e-27 7.68363e-13 -0)
(1.58972e-29 -1.3264e-14 -0)
(-5.74578e-29 4.4402e-14 -0)
(-2.87395e-29 3.46514e-14 -0)
(9.55274e-30 -1.71704e-14 -0)
(8.76093e-30 -2.26594e-14 -0)
(-1.25981e-29 3.82043e-14 -0)
(1.95237e-29 -8.61681e-14 -0)
(2.53294e-31 -2.48929e-14 -0)
(2.72139e-32 1.21757e-15 0)
(-6.25038e-16 -2.1842e-07 0)
(-1.8337e-16 2.70086e-07 -0)
(-1.03218e-17 -6.40825e-08 0)
(-5.81222e-19 1.52042e-08 -0)
(-3.26679e-20 -3.60735e-09 0)
(-1.8493e-21 8.55925e-10 -0)
(-1.02072e-22 -2.03073e-10 0)
(-6.1222e-24 4.81514e-11 -0)
(-2.75445e-25 -1.14266e-11 0)
(-2.7039e-26 2.65913e-12 -0)
(5.19873e-28 -6.0493e-13 -0)
(-3.29151e-28 1.48153e-13 -0)
(-1.88358e-29 1.4988e-14 -0)
(6.44698e-29 -6.34346e-14 -0)
(5.7369e-29 -9.2177e-14 -0)
(1.01447e-29 -2.77483e-14 -0)
(5.76428e-30 -1.67131e-14 -0)
(1.08814e-29 -5.48269e-14 -0)
(5.00927e-30 -7.40175e-14 -0)
(1.33567e-32 -3.39121e-14 -0)
(-6.21629e-16 2.17781e-07 -0)
(-1.82432e-16 -2.69383e-07 0)
(-1.02712e-17 6.39161e-08 -0)
(-5.77871e-19 -1.51648e-08 0)
(-3.26006e-20 3.59799e-09 -0)
(-1.82102e-21 -8.53673e-10 0)
(-1.05123e-22 2.02484e-10 -0)
(-5.45245e-24 -4.80537e-11 0)
(-3.8631e-25 1.13552e-11 -0)
(-7.876e-27 -2.71988e-12 0)
(-2.53369e-27 5.78153e-13 -0)
(3.32111e-28 -2.16987e-13 -0)
(4.62899e-30 -3.30791e-15 -0)
(-4.42336e-29 4.62997e-14 -0)
(-3.25303e-29 4.18039e-14 -0)
(-2.59657e-29 4.63457e-14 -0)
(-1.02463e-30 2.39137e-15 -0)
(-1.98596e-29 6.34238e-14 -0)
(-7.87219e-30 3.15447e-14 -0)
(5.61859e-31 -6.49767e-15 -0)
(-6.18835e-16 -2.17306e-07 0)
(-1.81603e-16 2.68768e-07 -0)
(-1.02212e-17 -6.37709e-08 0)
(-5.75881e-19 1.51305e-08 -0)
(-3.2313e-20 -3.58995e-09 0)
(-1.83747e-21 8.51693e-10 -0)
(-1.00237e-22 -2.02114e-10 0)
(-6.1578e-24 4.7844e-11 -0)
(-2.61165e-25 -1.13917e-11 0)
(-2.86688e-26 2.67344e-12 -0)
(7.56427e-28 -6.88955e-13 -0)
(-3.88503e-28 1.75977e-13 -0)
(4.25292e-29 -3.45372e-14 -0)
(-4.13439e-29 3.94064e-14 -0)
(-3.47053e-29 4.27239e-14 -0)
(6.9956e-30 -1.05474e-14 -0)
(1.43304e-29 -3.28837e-14 -0)
(-1.12928e-30 3.37684e-15 -0)
(5.56124e-30 -2.80151e-14 -0)
(1.37178e-30 -2.52777e-14 -0)
(-6.15091e-16 2.16556e-07 -0)
(-1.80629e-16 -2.68024e-07 0)
(-1.0174e-17 6.35951e-08 -0)
(-5.71891e-19 -1.50889e-08 0)
(-3.23494e-20 3.58005e-09 -0)
(-1.79869e-21 -8.49457e-10 0)
(-1.04745e-22 2.01523e-10 -0)
(-5.37173e-24 -4.78506e-11 0)
(-3.82857e-25 1.1279e-11 -0)
(-9.0122e-27 -2.76022e-12 0)
(-2.24628e-27 5.75599e-13 -0)
(1.74789e-28 -1.53902e-13 -0)
(-1.081e-28 8.4501e-14 -0)
(3.39169e-29 -3.78317e-14 -0)
(4.39116e-29 -6.97107e-14 -0)
(1.33757e-29 -2.8431e-14 -0)
(-6.5443e-31 1.8936e-15 -0)
(1.15728e-29 -5.30012e-14 -0)
(-8.58074e-31 9.90384e-15 -0)
(6.16175e-31 -1.32977e-14 -0)
(-6.14774e-16 -2.16901e-07 0)
(-1.8017e-16 2.67851e-07 -0)
(-1.01352e-17 -6.36025e-08 0)
(-5.72063e-19 1.51021e-08 -0)
(-3.20288e-20 -3.58594e-09 0)
(-1.82321e-21 8.51512e-10 -0)
(-9.97374e-23 -2.02152e-10 0)
(-6.01358e-24 4.80893e-11 -0)
(-2.7698e-25 -1.13463e-11 0)
(-2.54743e-26 2.78471e-12 -0)
(1.0423e-28 -5.69694e-13 -0)
(-3.06888e-28 1.97528e-13 -0)
(5.6411e-30 -7.02513e-15 -0)
(-1.78708e-29 2.66633e-14 -0)
(-1.09157e-29 2.06926e-14 -0)
(1.18574e-29 -3.53886e-14 -0)
(4.66239e-30 -2.68518e-14 -0)
(4.49675e-30 -6.75757e-14 -0)
(1.18801e-30 -2.97166e-14 -0)
(1.42089e-30 -3.51457e-14 -0)
(-6.12637e-16 2.1668e-07 -0)
(-1.79082e-16 -2.67205e-07 0)
(-1.00928e-17 6.33982e-08 -0)
(-5.6919e-19 -1.50882e-08 0)
(-3.20634e-20 3.57247e-09 -0)
(-1.81774e-21 -8.56954e-10 0)
(-1.01527e-22 1.9951e-10 -0)
(-5.93077e-24 -5.02903e-11 0)
(-3.0361e-25 1.01774e-11 -0)
(-2.13429e-26 -3.64394e-12 0)
(-1.20038e-28 5.1361e-14 -0)
(4.6627e-29 -6.01532e-13 -0)
(9.96192e-29 -2.57023e-13 -0)
(4.33844e-29 -1.99204e-13 -0)
(3.25533e-29 -1.1114e-13 -0)
(1.46914e-29 -7.70847e-14 -0)
(4.79212e-30 -7.46944e-14 -0)
(6.80665e-31 4.77497e-14 0)
(2.59905e-34 5.80927e-16 0)
(7.51063e-33 8.89297e-16 0)
)
;

boundaryField
{
    movingWall
    {
        type            calculated;
        value           nonuniform List<vector> 
20
(
(0 2.14863e-07 -0)
(0 -2.67444e-07 -0)
(0 6.35006e-08 -0)
(0 -1.5199e-08 -0)
(0 3.59334e-09 -0)
(0 -8.7456e-10 -0)
(0 1.99568e-10 -0)
(0 -5.39003e-11 -0)
(0 8.9425e-12 -0)
(0 -4.92551e-12 -0)
(0 -6.94397e-13 -0)
(0 -1.17195e-12 -0)
(0 -6.07697e-13 -0)
(0 -4.97967e-13 -0)
(0 -3.13583e-13 -0)
(0 -1.56101e-13 -0)
(0 -6.48932e-14 -0)
(0 8.23575e-14 -0)
(0 5.80927e-16 -0)
(0 8.89297e-16 -0)
)
;
    }
    fixedWalls
    {
        type            calculated;
        value           nonuniform List<vector> 
60
(
(0 -1.17867e-06 -0)
(0 1.17934e-06 -0)
(0 -1.17885e-06 -0)
(0 1.17919e-06 -0)
(0 -1.1769e-06 -0)
(0 1.17412e-06 -0)
(0 -1.17065e-06 -0)
(0 1.16726e-06 -0)
(0 -1.16373e-06 -0)
(0 1.16035e-06 -0)
(0 -1.157e-06 -0)
(0 1.15377e-06 -0)
(0 -1.15069e-06 -0)
(0 1.14763e-06 -0)
(0 -1.1448e-06 -0)
(0 1.14182e-06 -0)
(0 -1.1392e-06 -0)
(0 1.13605e-06 -0)
(0 -1.13447e-06 -0)
(0 1.13192e-06 -0)
(0 2.88964e-14 -0)
(0 3.45409e-14 -0)
(0 1.75116e-14 -0)
(0 2.48905e-14 -0)
(0 4.3572e-14 -0)
(0 3.53552e-14 -0)
(0 5.4968e-14 -0)
(0 7.64733e-16 -0)
(0 2.44566e-14 -0)
(0 -1.12132e-14 -0)
(0 2.19867e-14 -0)
(0 8.93832e-15 -0)
(0 3.45057e-14 -0)
(0 8.94042e-15 -0)
(0 -2.72626e-14 -0)
(0 -7.48326e-15 -0)
(0 -2.17073e-14 -0)
(0 -1.85347e-14 -0)
(0 -4.32765e-14 -0)
(0 3.37823e-15 -0)
(0 -2.24848e-07 -0)
(0 2.78918e-07 -0)
(0 -6.62962e-08 -0)
(0 1.58952e-08 -0)
(0 -3.75189e-09 -0)
(0 9.19597e-10 -0)
(0 -2.06909e-10 -0)
(0 5.79454e-11 -0)
(0 -8.31053e-12 -0)
(0 5.84192e-12 -0)
(0 1.21483e-12 -0)
(0 1.58862e-12 -0)
(0 9.28373e-13 -0)
(0 7.35782e-13 -0)
(0 4.93621e-13 -0)
(0 3.66155e-13 -0)
(0 1.9055e-13 -0)
(0 5.46653e-14 -0)
(0 9.24585e-14 -0)
(0 1.36781e-14 -0)
)
;
    }
    frontAndBack
    {
        type            empty;
    }
}


// ************************************************************************* //
