/*--------------------------------*- C++ -*----------------------------------*\
| =========                 |                                                 |
| \\      /  F ield         | OpenFOAM: The Open Source CFD Toolbox           |
|  \\    /   O peration     | Version:  2506                                  |
|   \\  /    A nd           | Website:  www.openfoam.com                      |
|    \\/     M anipulation  |                                                 |
\*---------------------------------------------------------------------------*/
FoamFile
{
    version     2.0;
    format      ascii;
    arch        "LSB;label=32;scalar=64";
    class       volVectorField;
    location    "5";
    object      momentum1:momentum;
}
// * * * * * * * * * * * * * * * * * * * * * * * * * * * * * * * * * * * * * //

dimensions      [1 1 -1 0 0 0 0];

internalField   nonuniform List<vector> 
400
(
(-2.5e-07 7.36672e-16 0)
(-2.5e-07 -1.74802e-16 0)
(-2.5e-07 4.15563e-17 0)
(-2.5e-07 -9.85151e-18 0)
(-2.5e-07 2.34799e-18 0)
(-2.5e-07 -5.546e-19 0)
(-2.5e-07 1.33596e-19 0)
(-2.5e-07 -3.07782e-20 0)
(-2.5e-07 7.93927e-21 0)
(-2.5e-07 -1.45312e-21 0)
(-2.5e-07 6.61942e-22 0)
(-2.5e-07 6.17216e-23 0)
(-2.5e-07 1.32084e-22 0)
(-2.5e-07 7.22564e-23 0)
(-2.5e-07 6.8986e-23 0)
(-2.5e-07 5.94484e-23 0)
(-2.5e-07 4.1776e-23 0)
(-2.5e-07 2.7162e-23 0)
(-2.5e-07 1.6135e-23 0)
(-2.5e-07 1.80603e-23 0)
(-2.5e-07 -7.37883e-16 0)
(-2.5e-07 1.75393e-16 0)
(-2.5e-07 -4.15611e-17 0)
(-2.5e-07 9.89691e-18 0)
(-2.5e-07 -2.3332e-18 0)
(-2.5e-07 5.61488e-19 0)
(-2.5e-07 -1.28635e-19 0)
(-2.5e-07 3.32361e-20 0)
(-2.5e-07 -6.1096e-21 0)
(-2.5e-07 2.64444e-21 0)
(-2.5e-07 2.09505e-22 0)
(-2.5e-07 5.38622e-22 0)
(-2.5e-07 2.78208e-22 0)
(-2.5e-07 2.01577e-22 0)
(-2.5e-07 1.36864e-22 0)
(-2.5e-07 1.35131e-22 0)
(-2.5e-07 1.10157e-22 0)
(-2.5e-07 5.89165e-23 0)
(-2.5e-07 3.06496e-23 0)
(-2.5e-07 2.1588e-23 0)
(-2.5e-07 7.37855e-16 0)
(-2.5e-07 -1.75253e-16 0)
(-2.5e-07 4.16225e-17 0)
(-2.5e-07 -9.86448e-18 0)
(-2.5e-07 2.35651e-18 0)
(-2.5e-07 -5.50793e-19 0)
(-2.5e-07 1.36475e-19 0)
(-2.5e-07 -2.87139e-20 0)
(-2.5e-07 9.35372e-21 0)
(-2.5e-07 -4.9445e-22 0)
(-2.5e-07 1.32077e-21 0)
(-2.5e-07 5.42346e-22 0)
(-2.5e-07 4.7737e-22 0)
(-2.5e-07 3.00526e-22 0)
(-2.5e-07 2.17692e-22 0)
(-2.5e-07 1.76074e-22 0)
(-2.5e-07 1.33526e-22 0)
(-2.5e-07 8.32078e-23 0)
(-2.5e-07 4.13574e-23 0)
(-2.5e-07 1.09448e-23 0)
(-2.5e-07 -7.37501e-16 0)
(-2.5e-07 1.75076e-16 0)
(-2.5e-07 -4.15386e-17 0)
(-2.5e-07 9.86884e-18 0)
(-2.5e-07 -2.33329e-18 0)
(-2.5e-07 5.60854e-19 0)
(-2.5e-07 -1.27891e-19 0)
(-2.5e-07 3.41106e-20 0)
(-2.5e-07 -5.38871e-21 0)
(-2.5e-07 3.23328e-21 0)
(-2.5e-07 6.54487e-22 0)
(-2.5e-07 8.67802e-22 0)
(-2.5e-07 5.21384e-22 0)
(-2.5e-07 4.01439e-22 0)
(-2.5e-07 3.12263e-22 0)
(-2.5e-07 2.30496e-22 0)
(-2.5e-07 1.54578e-22 0)
(-2.5e-07 1.01963e-22 0)
(-2.5e-07 5.22664e-23 0)
(-2.5e-07 1.55565e-23 0)
(-2.5e-07 7.35787e-16 0)
(-2.5e-07 -1.74605e-16 0)
(-2.5e-07 4.14388e-17 0)
(-2.5e-07 -9.8261e-18 0)
(-2.5e-07 2.33828e-18 0)
(-2.5e-07 -5.49406e-19 0)
(-2.5e-07 1.34771e-19 0)
(-2.5e-07 -2.86026e-20 0)
(-2.5e-07 9.32387e-21 0)
(-2.5e-07 -3.38762e-22 0)
(-2.5e-07 1.49139e-21 0)
(-2.5e-07 6.98638e-22 0)
(-2.5e-07 6.16524e-22 0)
(-2.5e-07 4.38222e-22 0)
(-2.5e-07 3.39224e-22 0)
(-2.5e-07 2.51971e-22 0)
(-2.5e-07 1.9045e-22 0)
(-2.5e-07 1.26724e-22 0)
(-2.5e-07 7.69038e-23 0)
(-2.5e-07 2.72325e-23 0)
(-2.5e-07 -7.33815e-16 0)
(-2.5e-07 1.74112e-16 0)
(-2.5e-07 -4.1308e-17 0)
(-2.5e-07 9.80543e-18 0)
(-2.5e-07 -2.32189e-18 0)
(-2.5e-07 5.55048e-19 0)
(-2.5e-07 -1.28198e-19 0)
(-2.5e-07 3.32165e-20 0)
(-2.5e-07 -5.67419e-21 0)
(-2.5e-07 3.04989e-21 0)
(-2.5e-07 5.76934e-22 0)
(-2.5e-07 8.64233e-22 0)
(-2.5e-07 5.78127e-22 0)
(-2.5e-07 4.80484e-22 0)
(-2.5e-07 3.43907e-22 0)
(-2.5e-07 2.47433e-22 0)
(-2.5e-07 1.99385e-22 0)
(-2.5e-07 1.24676e-22 0)
(-2.5e-07 7.26827e-23 0)
(-2.5e-07 2.2097e-23 0)
(-2.5e-07 7.31563e-16 0)
(-2.5e-07 -1.73561e-16 0)
(-2.5e-07 4.1182e-17 0)
(-2.5e-07 -9.76746e-18 0)
(-2.5e-07 2.32047e-18 0)
(-2.5e-07 -5.47573e-19 0)
(-2.5e-07 1.32535e-19 0)
(-2.5e-07 -2.92404e-20 0)
(-2.5e-07 8.75145e-21 0)
(-2.5e-07 -6.1364e-22 0)
(-2.5e-07 1.2735e-21 0)
(-2.5e-07 5.81325e-22 0)
(-2.5e-07 5.67597e-22 0)
(-2.5e-07 4.3914e-22 0)
(-2.5e-07 3.49604e-22 0)
(-2.5e-07 2.48203e-22 0)
(-2.5e-07 1.65002e-22 0)
(-2.5e-07 7.64625e-23 0)
(-2.5e-07 4.68615e-23 0)
(-2.5e-07 1.74144e-23 0)
(-2.5e-07 -7.29391e-16 0)
(-2.5e-07 1.7304e-16 0)
(-2.5e-07 -4.10534e-17 0)
(-2.5e-07 9.74163e-18 0)
(-2.5e-07 -2.30891e-18 0)
(-2.5e-07 5.49884e-19 0)
(-2.5e-07 -1.28535e-19 0)
(-2.5e-07 3.21918e-20 0)
(-2.5e-07 -6.21726e-21 0)
(-2.5e-07 2.61737e-21 0)
(-2.5e-07 2.59758e-22 0)
(-2.5e-07 6.23423e-22 0)
(-2.5e-07 4.18184e-22 0)
(-2.5e-07 3.68573e-22 0)
(-2.5e-07 3.1389e-22 0)
(-2.5e-07 2.28036e-22 0)
(-2.5e-07 1.28575e-22 0)
(-2.5e-07 5.1862e-23 0)
(-2.5e-07 3.23015e-23 0)
(-2.5e-07 1.74186e-23 0)
(-2.5e-07 7.27166e-16 0)
(-2.5e-07 -1.72507e-16 0)
(-2.5e-07 4.09291e-17 0)
(-2.5e-07 -9.70885e-18 0)
(-2.5e-07 2.30458e-18 0)
(-2.5e-07 -5.45439e-19 0)
(-2.5e-07 1.30604e-19 0)
(-2.5e-07 -2.99087e-20 0)
(-2.5e-07 7.9834e-21 0)
(-2.5e-07 -1.15453e-21 0)
(-2.5e-07 8.96648e-22 0)
(-2.5e-07 3.15567e-22 0)
(-2.5e-07 3.62883e-22 0)
(-2.5e-07 2.59867e-22 0)
(-2.5e-07 1.97952e-22 0)
(-2.5e-07 1.45901e-22 0)
(-2.5e-07 9.59453e-23 0)
(-2.5e-07 6.05568e-23 0)
(-2.5e-07 1.60403e-23 0)
(-2.5e-07 -1.6553e-24 0)
(-2.5e-07 -7.25042e-16 0)
(-2.5e-07 1.72003e-16 0)
(-2.5e-07 -4.0808e-17 0)
(-2.5e-07 9.68184e-18 0)
(-2.5e-07 -2.29622e-18 0)
(-2.5e-07 5.4539e-19 0)
(-2.5e-07 -1.28814e-19 0)
(-2.5e-07 3.10588e-20 0)
(-2.5e-07 -6.94566e-21 0)
(-2.5e-07 2.03027e-21 0)
(-2.5e-07 -9.93315e-23 0)
(-2.5e-07 3.74152e-22 0)
(-2.5e-07 1.94008e-22 0)
(-2.5e-07 1.87448e-22 0)
(-2.5e-07 1.16568e-22 0)
(-2.5e-07 1.0078e-22 0)
(-2.5e-07 6.11735e-23 0)
(-2.5e-07 5.79055e-23 0)
(-2.5e-07 3.28859e-23 0)
(-2.5e-07 9.93239e-24 0)
(-2.5e-07 7.22957e-16 0)
(-2.5e-07 -1.71509e-16 0)
(-2.5e-07 4.06912e-17 0)
(-2.5e-07 -9.65358e-18 0)
(-2.5e-07 2.29016e-18 0)
(-2.5e-07 -5.43303e-19 0)
(-2.5e-07 1.28917e-19 0)
(-2.5e-07 -3.05256e-20 0)
(-2.5e-07 7.35192e-21 0)
(-2.5e-07 -1.60457e-21 0)
(-2.5e-07 5.07693e-22 0)
(-2.5e-07 -2.9647e-23 0)
(-2.5e-07 7.08808e-23 0)
(-2.5e-07 4.12349e-23 0)
(-2.5e-07 5.2678e-23 0)
(-2.5e-07 5.75164e-23 0)
(-2.5e-07 5.59279e-23 0)
(-2.5e-07 4.64364e-23 0)
(-2.5e-07 2.24403e-23 0)
(-2.5e-07 1.37417e-23 0)
(-2.5e-07 -7.20952e-16 0)
(-2.5e-07 1.71036e-16 0)
(-2.5e-07 -4.05795e-17 0)
(-2.5e-07 9.62663e-18 0)
(-2.5e-07 -2.2844e-18 0)
(-2.5e-07 5.41387e-19 0)
(-2.5e-07 -1.28942e-19 0)
(-2.5e-07 3.01772e-20 0)
(-2.5e-07 -7.45949e-21 0)
(-2.5e-07 1.52665e-21 0)
(-2.5e-07 -5.77046e-22 0)
(-2.5e-07 -1.60226e-23 0)
(-2.5e-07 -8.25465e-23 0)
(-2.5e-07 -3.59356e-23 0)
(-2.5e-07 -2.64841e-23 0)
(-2.5e-07 -2.03335e-24 0)
(-2.5e-07 4.38292e-23 0)
(-2.5e-07 4.72966e-23 0)
(-2.5e-07 1.44393e-23 0)
(-2.5e-07 5.58645e-24 0)
(-2.5e-07 7.19041e-16 0)
(-2.5e-07 -1.70586e-16 0)
(-2.5e-07 4.04715e-17 0)
(-2.5e-07 -9.6029e-18 0)
(-2.5e-07 2.27684e-18 0)
(-2.5e-07 -5.41438e-19 0)
(-2.5e-07 1.27358e-19 0)
(-2.5e-07 -3.11115e-20 0)
(-2.5e-07 6.67716e-21 0)
(-2.5e-07 -2.17901e-21 0)
(-2.5e-07 4.28363e-23 0)
(-2.5e-07 -3.54327e-22 0)
(-2.5e-07 -1.27596e-22 0)
(-2.5e-07 -9.92355e-23 0)
(-2.5e-07 -7.82264e-23 0)
(-2.5e-07 -6.7184e-23 0)
(-2.5e-07 -3.6922e-23 0)
(-2.5e-07 -1.40816e-23 0)
(-2.5e-07 5.77172e-24 0)
(-2.5e-07 4.62542e-24 0)
(-2.5e-07 -7.1716e-16 0)
(-2.5e-07 1.70143e-16 0)
(-2.5e-07 -4.03694e-17 0)
(-2.5e-07 9.57547e-18 0)
(-2.5e-07 -2.27394e-18 0)
(-2.5e-07 5.37495e-19 0)
(-2.5e-07 -1.29232e-19 0)
(-2.5e-07 2.92548e-20 0)
(-2.5e-07 -8.02429e-21 0)
(-2.5e-07 1.07918e-21 0)
(-2.5e-07 -8.9877e-22 0)
(-2.5e-07 -2.9963e-22 0)
(-2.5e-07 -3.23509e-22 0)
(-2.5e-07 -2.07347e-22 0)
(-2.5e-07 -1.39087e-22 0)
(-2.5e-07 -9.66588e-23 0)
(-2.5e-07 -8.24387e-23 0)
(-2.5e-07 -5.66444e-23 0)
(-2.5e-07 -2.54384e-24 0)
(-2.5e-07 5.58776e-24 0)
(-2.5e-07 7.15407e-16 0)
(-2.5e-07 -1.69733e-16 0)
(-2.5e-07 4.02676e-17 0)
(-2.5e-07 -9.55696e-18 0)
(-2.5e-07 2.26398e-18 0)
(-2.5e-07 -5.40147e-19 0)
(-2.5e-07 1.2566e-19 0)
(-2.5e-07 -3.17862e-20 0)
(-2.5e-07 6.0264e-21 0)
(-2.5e-07 -2.54209e-21 0)
(-2.5e-07 -2.14849e-22 0)
(-2.5e-07 -5.55423e-22 0)
(-2.5e-07 -3.14181e-22 0)
(-2.5e-07 -2.5408e-22 0)
(-2.5e-07 -1.55595e-22 0)
(-2.5e-07 -9.13997e-23 0)
(-2.5e-07 -8.62239e-23 0)
(-2.5e-07 -4.96169e-23 0)
(-2.5e-07 -1.69192e-23 0)
(-2.5e-07 -9.84656e-26 0)
(-2.5e-07 -7.13595e-16 0)
(-2.5e-07 1.69306e-16 0)
(-2.5e-07 -4.01746e-17 0)
(-2.5e-07 9.5265e-18 0)
(-2.5e-07 -2.26519e-18 0)
(-2.5e-07 5.3329e-19 0)
(-2.5e-07 -1.29791e-19 0)
(-2.5e-07 2.83664e-20 0)
(-2.5e-07 -8.50516e-21 0)
(-2.5e-07 7.2393e-22 0)
(-2.5e-07 -1.0956e-21 0)
(-2.5e-07 -3.82639e-22 0)
(-2.5e-07 -3.49842e-22 0)
(-2.5e-07 -2.38844e-22 0)
(-2.5e-07 -1.94541e-22 0)
(-2.5e-07 -1.40065e-22 0)
(-2.5e-07 -1.07118e-22 0)
(-2.5e-07 -7.82812e-23 0)
(-2.5e-07 -6.23891e-23 0)
(-2.5e-07 -2.16177e-23 0)
(-2.5e-07 7.11939e-16 0)
(-2.5e-07 -1.68922e-16 0)
(-2.5e-07 4.007e-17 0)
(-2.5e-07 -9.51525e-18 0)
(-2.5e-07 2.25024e-18 0)
(-2.5e-07 -5.39359e-19 0)
(-2.5e-07 1.23986e-19 0)
(-2.5e-07 -3.21765e-20 0)
(-2.5e-07 5.73149e-21 0)
(-2.5e-07 -2.68089e-21 0)
(-2.5e-07 -2.74484e-22 0)
(-2.5e-07 -5.51923e-22 0)
(-2.5e-07 -3.07851e-22 0)
(-2.5e-07 -2.62292e-22 0)
(-2.5e-07 -2.03079e-22 0)
(-2.5e-07 -1.65814e-22 0)
(-2.5e-07 -1.08948e-22 0)
(-2.5e-07 -8.36047e-23 0)
(-2.5e-07 -4.96273e-23 0)
(-2.5e-07 -1.35671e-23 0)
(-2.5e-07 -7.10082e-16 0)
(-2.5e-07 1.68482e-16 0)
(-2.5e-07 -3.9995e-17 0)
(-2.5e-07 9.47536e-18 0)
(-2.5e-07 -2.25901e-18 0)
(-2.5e-07 5.29364e-19 0)
(-2.5e-07 -1.29942e-19 0)
(-2.5e-07 2.80651e-20 0)
(-2.5e-07 -8.48604e-21 0)
(-2.5e-07 8.16257e-22 0)
(-2.5e-07 -9.75627e-22 0)
(-2.5e-07 -2.83928e-22 0)
(-2.5e-07 -3.1982e-22 0)
(-2.5e-07 -2.2413e-22 0)
(-2.5e-07 -1.57478e-22 0)
(-2.5e-07 -1.17616e-22 0)
(-2.5e-07 -8.64004e-23 0)
(-2.5e-07 -5.45872e-23 0)
(-2.5e-07 -2.16601e-23 0)
(-2.5e-07 -1.15842e-23 0)
(-2.5e-07 7.08589e-16 0)
(-2.5e-07 -1.68163e-16 0)
(-2.5e-07 3.9838e-17 0)
(-2.5e-07 -9.46991e-18 0)
(-2.5e-07 2.23295e-18 0)
(-2.5e-07 -5.35287e-19 0)
(-2.5e-07 1.23345e-19 0)
(-2.5e-07 -3.12626e-20 0)
(-2.5e-07 6.10288e-21 0)
(-2.5e-07 -2.28698e-21 0)
(-2.5e-07 -4.57394e-23 0)
(-2.5e-07 -3.8841e-22 0)
(-2.5e-07 -2.00747e-22 0)
(-2.5e-07 -1.67559e-22 0)
(-2.5e-07 -1.3188e-22 0)
(-2.5e-07 -8.37655e-23 0)
(-2.5e-07 -4.34085e-23 0)
(-2.5e-07 -1.6636e-23 0)
(-2.5e-07 -9.9945e-24 0)
(-2.5e-07 -1.01071e-23 0)
(-2.5e-07 -7.06846e-16 0)
(-2.5e-07 1.67551e-16 0)
(-2.5e-07 -3.97991e-17 0)
(-2.5e-07 9.43103e-18 0)
(-2.5e-07 -2.24379e-18 0)
(-2.5e-07 5.30291e-19 0)
(-2.5e-07 -1.27221e-19 0)
(-2.5e-07 2.94827e-20 0)
(-2.5e-07 -7.45797e-21 0)
(-2.5e-07 1.46428e-21 0)
(-2.5e-07 -5.84287e-22 0)
(-2.5e-07 -1.93784e-23 0)
(-2.5e-07 -9.68972e-23 0)
(-2.5e-07 -5.44473e-23 0)
(-2.5e-07 -7.32256e-23 0)
(-2.5e-07 -4.7647e-23 0)
(-2.5e-07 -1.60391e-23 0)
(-2.5e-07 3.56371e-24 0)
(-2.5e-07 1.11849e-25 0)
(-2.5e-07 2.11139e-24 0)
)
;

boundaryField
{
    movingWall
    {
        type            calculated;
        value           uniform (0 0 0);
    }
    fixedWalls
    {
        type            calculated;
        value           uniform (0 0 0);
    }
    frontAndBack
    {
        type            empty;
    }
}


// ************************************************************************* //
