/*--------------------------------*- C++ -*----------------------------------*\
| =========                 |                                                 |
| \\      /  F ield         | OpenFOAM: The Open Source CFD Toolbox           |
|  \\    /   O peration     | Version:  2506                                  |
|   \\  /    A nd           | Website:  www.openfoam.com                      |
|    \\/     M anipulation  |                                                 |
\*---------------------------------------------------------------------------*/
FoamFile
{
    version     2.0;
    format      ascii;
    arch        "LSB;label=32;scalar=64";
    class       volScalarField;
    location    "5";
    object      norm_k_field;
}
// * * * * * * * * * * * * * * * * * * * * * * * * * * * * * * * * * * * * * //

dimensions      [0 0 0 0 0 0 0];

internalField   nonuniform List<scalar> 
400
(
1.42381e+10
1.437e+10
3.81916e+07
1.12381e+09
2.4208e+08
1.43699e+10
1.43697e+10
1.43698e+10
1.43698e+10
1.43698e+10
1.43698e+10
1.43697e+10
1.43697e+10
1.43697e+10
1.43697e+10
1.43697e+10
1.43697e+10
1.43697e+10
1.43697e+10
1.43697e+10
1.57032e+10
1.57032e+10
1.57013e+10
1.57005e+10
2.88625e+09
1.56986e+10
1.56976e+10
1.56969e+10
1.56961e+10
1.56955e+10
1.56948e+10
1.56943e+10
1.56938e+10
1.56935e+10
1.56931e+10
1.56928e+10
1.56926e+10
1.56925e+10
1.56924e+10
1.56924e+10
3.56522e+08
1.74694e+10
1.7467e+10
1.7466e+10
1.74645e+10
1.74636e+10
1.74623e+10
1.74615e+10
1.74604e+10
1.74597e+10
1.74589e+10
1.74583e+10
1.74577e+10
1.74572e+10
1.74568e+10
1.74564e+10
1.74562e+10
1.7456e+10
1.74559e+10
1.74559e+10
1.89575e+10
1.85881e+07
1.89546e+10
5.65702e+09
1.89517e+10
1.89506e+10
1.89491e+10
1.89481e+10
1.89469e+10
1.8946e+10
1.8945e+10
1.89443e+10
1.89436e+10
1.89431e+10
1.89425e+10
1.89422e+10
1.89419e+10
1.89417e+10
1.89415e+10
1.89415e+10
1.99665e+10
1.99664e+10
1.99633e+10
1.9962e+10
1.99601e+10
1.99588e+10
1.99571e+10
1.99561e+10
1.99547e+10
1.99538e+10
1.99526e+10
1.99519e+10
1.9951e+10
1.99504e+10
1.99499e+10
1.99494e+10
1.99491e+10
1.99489e+10
1.99487e+10
1.99487e+10
2.28192e+09
1.78257e+07
2.05743e+10
3.84024e+09
2.05709e+10
2.05696e+10
2.05678e+10
2.05666e+10
2.05652e+10
2.05642e+10
2.0563e+10
2.05622e+10
2.05613e+10
2.05607e+10
2.056e+10
2.05596e+10
2.05592e+10
2.0559e+10
2.05589e+10
2.05588e+10
2.09326e+10
2.09325e+10
2.0929e+10
2.09277e+10
2.09253e+10
2.0924e+10
2.09222e+10
2.0921e+10
2.09195e+10
2.09185e+10
2.09172e+10
2.09164e+10
2.09155e+10
2.09148e+10
2.09141e+10
2.09137e+10
2.09133e+10
2.09131e+10
2.09129e+10
2.09129e+10
7.88372e+08
2.02404e+07
2.11397e+10
9.18521e+09
2.11362e+10
2.11348e+10
2.1133e+10
2.11317e+10
2.11302e+10
2.11291e+10
2.11278e+10
2.1127e+10
2.11259e+10
2.11254e+10
2.11246e+10
2.11243e+10
2.11238e+10
2.11236e+10
2.11234e+10
2.11234e+10
2.12814e+10
2.12814e+10
2.12778e+10
2.12763e+10
2.12742e+10
2.12726e+10
2.12709e+10
2.12694e+10
2.1268e+10
2.12668e+10
2.12656e+10
2.12647e+10
2.12637e+10
2.12631e+10
2.12624e+10
2.12619e+10
2.12615e+10
2.12613e+10
2.12611e+10
2.1261e+10
5.48221e+08
2.45499e+07
2.13824e+10
2.13809e+10
2.13786e+10
2.13772e+10
2.13752e+10
2.1374e+10
2.13723e+10
2.13713e+10
2.137e+10
2.13691e+10
2.13681e+10
2.13675e+10
2.13667e+10
2.13663e+10
2.13659e+10
2.13657e+10
2.13655e+10
2.13654e+10
2.14784e+10
2.14783e+10
2.14748e+10
2.14732e+10
2.14709e+10
2.14695e+10
2.14675e+10
2.14662e+10
2.14647e+10
2.14636e+10
2.14622e+10
2.14614e+10
2.14603e+10
2.14597e+10
2.14589e+10
2.14585e+10
2.1458e+10
2.14579e+10
2.14577e+10
2.14576e+10
4.59572e+08
3.09065e+07
2.15663e+10
2.15647e+10
2.15624e+10
2.15609e+10
2.15589e+10
2.15577e+10
2.1556e+10
2.1555e+10
2.15535e+10
2.15529e+10
2.15515e+10
2.15512e+10
2.15502e+10
2.155e+10
2.15494e+10
2.15492e+10
2.15491e+10
2.1549e+10
2.16673e+10
2.16672e+10
2.16635e+10
2.1662e+10
2.16597e+10
2.16582e+10
2.16562e+10
2.16549e+10
2.16533e+10
2.16522e+10
2.16509e+10
2.165e+10
2.16489e+10
2.16483e+10
2.16475e+10
2.16471e+10
2.16467e+10
2.16464e+10
2.16463e+10
2.16462e+10
4.29393e+08
3.92076e+07
2.17713e+10
2.17698e+10
2.17676e+10
2.17658e+10
2.17641e+10
2.17625e+10
2.1761e+10
2.17598e+10
2.17585e+10
2.17576e+10
2.17566e+10
2.17559e+10
2.17552e+10
2.17547e+10
2.17543e+10
2.1754e+10
2.17538e+10
2.17538e+10
2.18971e+10
2.18972e+10
2.1893e+10
2.18918e+10
2.18893e+10
2.18877e+10
2.18858e+10
2.18844e+10
2.18828e+10
2.18816e+10
2.18803e+10
2.18793e+10
2.18782e+10
2.18776e+10
2.18768e+10
2.18764e+10
2.18759e+10
2.18757e+10
2.18755e+10
2.18755e+10
3.97787e+08
4.88528e+07
2.20316e+10
2.203e+10
2.20278e+10
2.2026e+10
2.20242e+10
2.20226e+10
2.20211e+10
2.20198e+10
2.20185e+10
2.20176e+10
2.20165e+10
2.20158e+10
2.20151e+10
2.20146e+10
2.20141e+10
2.20139e+10
2.20137e+10
2.20137e+10
2.21889e+10
2.21888e+10
2.21849e+10
2.21834e+10
2.21807e+10
2.21794e+10
2.21771e+10
2.2176e+10
2.2174e+10
2.21731e+10
2.21715e+10
2.21707e+10
2.21695e+10
2.21689e+10
2.2168e+10
2.21677e+10
2.21671e+10
2.21669e+10
2.21668e+10
2.21667e+10
3.34956e+08
6.06753e+07
2.23419e+10
2.23402e+10
2.23378e+10
2.23361e+10
2.23342e+10
2.23326e+10
2.2331e+10
2.23297e+10
2.23284e+10
2.23274e+10
2.23263e+10
2.23256e+10
2.23248e+10
2.23243e+10
2.23239e+10
2.23236e+10
2.23235e+10
2.23234e+10
2.24807e+10
2.24807e+10
1.89507e+09
2.24754e+10
4.1126e+09
2.24714e+10
2.24693e+10
2.24679e+10
2.24662e+10
2.2465e+10
2.24636e+10
2.24627e+10
2.24616e+10
2.24609e+10
2.24601e+10
2.24597e+10
2.24592e+10
2.24589e+10
2.24588e+10
2.24587e+10
1.0843e+09
2.25393e+10
7.24941e+07
2.25392e+10
5.64179e+08
2.25391e+10
2.25391e+10
2.25391e+10
2.2539e+10
2.2539e+10
2.2539e+10
2.2539e+10
2.2539e+10
2.2539e+10
2.2539e+10
2.2539e+10
2.2539e+10
2.2539e+10
2.2539e+10
2.2539e+10
)
;

boundaryField
{
    movingWall
    {
        type            calculated;
        value           nonuniform List<scalar> 
20
(
1.0843e+09
2.25393e+10
7.24941e+07
2.25392e+10
5.64179e+08
2.25391e+10
2.25391e+10
2.25391e+10
2.2539e+10
2.2539e+10
2.2539e+10
2.2539e+10
2.2539e+10
2.2539e+10
2.2539e+10
2.2539e+10
2.2539e+10
2.2539e+10
2.2539e+10
2.2539e+10
)
;
    }
    fixedWalls
    {
        type            calculated;
        value           nonuniform List<scalar> 
60
(
1.42381e+10
1.57032e+10
3.56522e+08
1.89575e+10
1.99665e+10
2.28192e+09
2.09326e+10
7.88372e+08
2.12814e+10
5.48221e+08
2.14784e+10
4.59572e+08
2.16673e+10
4.29393e+08
2.18971e+10
3.97787e+08
2.21889e+10
3.34956e+08
2.24807e+10
1.0843e+09
1.43697e+10
1.56924e+10
1.74559e+10
1.89415e+10
1.99487e+10
2.05588e+10
2.09129e+10
2.11234e+10
2.1261e+10
2.13654e+10
2.14576e+10
2.1549e+10
2.16462e+10
2.17538e+10
2.18755e+10
2.20137e+10
2.21667e+10
2.23234e+10
2.24587e+10
2.2539e+10
1.42381e+10
1.437e+10
3.81916e+07
1.12381e+09
2.4208e+08
1.43699e+10
1.43697e+10
1.43698e+10
1.43698e+10
1.43698e+10
1.43698e+10
1.43697e+10
1.43697e+10
1.43697e+10
1.43697e+10
1.43697e+10
1.43697e+10
1.43697e+10
1.43697e+10
1.43697e+10
)
;
    }
    frontAndBack
    {
        type            empty;
    }
}


// ************************************************************************* //
