/*--------------------------------*- C++ -*----------------------------------*\
| =========                 |                                                 |
| \\      /  F ield         | OpenFOAM: The Open Source CFD Toolbox           |
|  \\    /   O peration     | Version:  2506                                  |
|   \\  /    A nd           | Website:  www.openfoam.com                      |
|    \\/     M anipulation  |                                                 |
\*---------------------------------------------------------------------------*/
FoamFile
{
    version     2.0;
    format      ascii;
    arch        "LSB;label=32;scalar=64";
    class       volScalarField;
    location    "5";
    object      nut;
}
// * * * * * * * * * * * * * * * * * * * * * * * * * * * * * * * * * * * * * //

dimensions      [0 2 -1 0 0 0 0];

internalField   nonuniform List<scalar> 
400
(
2.11923e-06
2.11924e-06
2.11921e-06
2.11925e-06
2.1192e-06
2.11924e-06
2.1192e-06
2.11923e-06
2.11921e-06
2.11922e-06
2.11922e-06
2.11922e-06
2.11922e-06
2.11922e-06
2.11922e-06
2.11922e-06
2.11922e-06
2.11922e-06
2.11922e-06
2.11922e-06
2.21439e-06
2.26753e-06
2.26261e-06
2.26059e-06
2.25659e-06
2.25452e-06
2.25057e-06
2.24847e-06
2.24457e-06
2.24244e-06
2.23858e-06
2.23642e-06
2.23261e-06
2.23041e-06
2.22666e-06
2.22442e-06
2.22072e-06
2.21844e-06
2.21659e-06
2.21364e-06
2.33463e-06
2.39469e-06
2.38901e-06
2.3867e-06
2.38211e-06
2.37976e-06
2.37524e-06
2.37287e-06
2.36842e-06
2.36602e-06
2.36165e-06
2.35922e-06
2.35492e-06
2.35247e-06
2.34823e-06
2.34575e-06
2.34159e-06
2.33909e-06
2.33701e-06
2.33372e-06
2.43143e-06
2.49698e-06
2.49075e-06
2.48824e-06
2.48322e-06
2.48065e-06
2.47571e-06
2.47312e-06
2.46826e-06
2.46564e-06
2.46087e-06
2.45822e-06
2.45352e-06
2.45084e-06
2.44623e-06
2.44352e-06
2.43898e-06
2.43625e-06
2.43399e-06
2.43041e-06
2.495e-06
2.56434e-06
2.55777e-06
2.55509e-06
2.54979e-06
2.54706e-06
2.54184e-06
2.53909e-06
2.53394e-06
2.53118e-06
2.52611e-06
2.52331e-06
2.51835e-06
2.5155e-06
2.51063e-06
2.50776e-06
2.50296e-06
2.50007e-06
2.49768e-06
2.49389e-06
2.53277e-06
2.60443e-06
2.59761e-06
2.59486e-06
2.58936e-06
2.58655e-06
2.58115e-06
2.5783e-06
2.573e-06
2.57012e-06
2.56491e-06
2.562e-06
2.55687e-06
2.55393e-06
2.5489e-06
2.54593e-06
2.54098e-06
2.53799e-06
2.53552e-06
2.5316e-06
2.55444e-06
2.62743e-06
2.62048e-06
2.61768e-06
2.61207e-06
2.6092e-06
2.60372e-06
2.60082e-06
2.59541e-06
2.59248e-06
2.58716e-06
2.5842e-06
2.57898e-06
2.57599e-06
2.57086e-06
2.56783e-06
2.56279e-06
2.55974e-06
2.55723e-06
2.55324e-06
2.56725e-06
2.64105e-06
2.63395e-06
2.63118e-06
2.62551e-06
2.62259e-06
2.61706e-06
2.61411e-06
2.60865e-06
2.60568e-06
2.6003e-06
2.59732e-06
2.59202e-06
2.58902e-06
2.58381e-06
2.58078e-06
2.57566e-06
2.57259e-06
2.57005e-06
2.56602e-06
2.57558e-06
2.64985e-06
2.64279e-06
2.63991e-06
2.63427e-06
2.63128e-06
2.62575e-06
2.62274e-06
2.61727e-06
2.61426e-06
2.60886e-06
2.60585e-06
2.60053e-06
2.59749e-06
2.59227e-06
2.58919e-06
2.58406e-06
2.58096e-06
2.5784e-06
2.57434e-06
2.58186e-06
2.65651e-06
2.64945e-06
2.64655e-06
2.64083e-06
2.63789e-06
2.63226e-06
2.6293e-06
2.62375e-06
2.62076e-06
2.61532e-06
2.6123e-06
2.60695e-06
2.60389e-06
2.59864e-06
2.59555e-06
2.59039e-06
2.58728e-06
2.58471e-06
2.58063e-06
2.5874e-06
2.66238e-06
2.6553e-06
2.65238e-06
2.64663e-06
2.64368e-06
2.63803e-06
2.63504e-06
2.6295e-06
2.62648e-06
2.62102e-06
2.61799e-06
2.61259e-06
2.60955e-06
2.60424e-06
2.60116e-06
2.59596e-06
2.59284e-06
2.59026e-06
2.58617e-06
2.59288e-06
2.6682e-06
2.66108e-06
2.65814e-06
2.65237e-06
2.6494e-06
2.64372e-06
2.64074e-06
2.63514e-06
2.63214e-06
2.62662e-06
2.62362e-06
2.61814e-06
2.61514e-06
2.60978e-06
2.60671e-06
2.60147e-06
2.59835e-06
2.59575e-06
2.59164e-06
2.5987e-06
2.67436e-06
2.66718e-06
2.66425e-06
2.65846e-06
2.65547e-06
2.64978e-06
2.64676e-06
2.64116e-06
2.63812e-06
2.63261e-06
2.62954e-06
2.62412e-06
2.62102e-06
2.6157e-06
2.61257e-06
2.60734e-06
2.60418e-06
2.60158e-06
2.59745e-06
2.60515e-06
2.68119e-06
2.67393e-06
2.671e-06
2.66524e-06
2.66214e-06
2.6565e-06
2.6534e-06
2.6478e-06
2.64473e-06
2.6392e-06
2.63611e-06
2.63067e-06
2.62755e-06
2.62221e-06
2.61906e-06
2.61381e-06
2.61063e-06
2.60801e-06
2.60386e-06
2.61239e-06
2.68889e-06
2.68152e-06
2.67865e-06
2.67277e-06
2.66973e-06
2.66401e-06
2.66093e-06
2.65529e-06
2.6522e-06
2.64663e-06
2.64353e-06
2.63805e-06
2.63492e-06
2.62953e-06
2.62638e-06
2.62109e-06
2.6179e-06
2.61527e-06
2.61109e-06
2.62058e-06
2.69754e-06
2.69021e-06
2.68723e-06
2.68139e-06
2.67828e-06
2.67256e-06
2.66942e-06
2.66377e-06
2.66064e-06
2.65505e-06
2.65192e-06
2.64642e-06
2.64326e-06
2.63785e-06
2.63466e-06
2.62935e-06
2.62613e-06
2.62348e-06
2.61928e-06
2.62961e-06
2.70712e-06
2.69975e-06
2.69677e-06
2.6908e-06
2.68778e-06
2.68189e-06
2.67886e-06
2.67305e-06
2.67e-06
2.6643e-06
2.6612e-06
2.65561e-06
2.65247e-06
2.64699e-06
2.64381e-06
2.63844e-06
2.63521e-06
2.63254e-06
2.62831e-06
2.63885e-06
2.71686e-06
2.70946e-06
2.70642e-06
2.70048e-06
2.69735e-06
2.69153e-06
2.68837e-06
2.68263e-06
2.67946e-06
2.67379e-06
2.67062e-06
2.66504e-06
2.66183e-06
2.65635e-06
2.65311e-06
2.64773e-06
2.64446e-06
2.64178e-06
2.63752e-06
2.64672e-06
2.72353e-06
2.71639e-06
2.71347e-06
2.70766e-06
2.70466e-06
2.69895e-06
2.69588e-06
2.69024e-06
2.68713e-06
2.68156e-06
2.67842e-06
2.67291e-06
2.66971e-06
2.66429e-06
2.66103e-06
2.6557e-06
2.65238e-06
2.64972e-06
2.64544e-06
2.65015e-06
2.65014e-06
2.65015e-06
2.65013e-06
2.65015e-06
2.65013e-06
2.65014e-06
2.65012e-06
2.65014e-06
2.65013e-06
2.65013e-06
2.65013e-06
2.65013e-06
2.65013e-06
2.65013e-06
2.65013e-06
2.65013e-06
2.65013e-06
2.65013e-06
2.65013e-06
)
;

boundaryField
{
    movingWall
    {
        type            nutkWallFunction;
        blending        stepwise;
        value           uniform 0;
    }
    fixedWalls
    {
        type            nutkWallFunction;
        blending        stepwise;
        value           uniform 0;
    }
    frontAndBack
    {
        type            empty;
    }
}


// ************************************************************************* //
