/*--------------------------------*- C++ -*----------------------------------*\
| =========                 |                                                 |
| \\      /  F ield         | OpenFOAM: The Open Source CFD Toolbox           |
|  \\    /   O peration     | Version:  2506                                  |
|   \\  /    A nd           | Website:  www.openfoam.com                      |
|    \\/     M anipulation  |                                                 |
\*---------------------------------------------------------------------------*/
FoamFile
{
    version     2.0;
    format      ascii;
    arch        "LSB;label=32;scalar=64";
    class       volScalarField;
    location    "5";
    object      P_A;
}
// * * * * * * * * * * * * * * * * * * * * * * * * * * * * * * * * * * * * * //

dimensions      [1 -1 -3 0 0 0 0];

internalField   nonuniform List<scalar> 
400
(
8.54664e-31
8.54662e-31
8.54639e-31
8.54653e-31
8.54625e-31
8.54643e-31
8.54617e-31
8.5463e-31
8.54615e-31
8.54618e-31
8.54614e-31
8.54611e-31
8.54611e-31
8.54608e-31
8.54608e-31
8.54607e-31
8.54607e-31
8.54606e-31
8.54606e-31
8.54606e-31
1.2193e-30
1.19072e-30
1.19268e-30
1.19348e-30
1.19518e-30
1.19602e-30
1.19777e-30
1.19866e-30
1.20046e-30
1.2014e-30
1.20324e-30
1.20424e-30
1.20611e-30
1.20718e-30
1.20908e-30
1.21022e-30
1.21216e-30
1.21335e-30
1.21434e-30
1.21595e-30
1.86835e-30
1.82146e-30
1.82468e-30
1.826e-30
1.82878e-30
1.83016e-30
1.83303e-30
1.83448e-30
1.83743e-30
1.83895e-30
1.84197e-30
1.84358e-30
1.84665e-30
1.84836e-30
1.85148e-30
1.85328e-30
1.85646e-30
1.85836e-30
1.85996e-30
1.86256e-30
2.59164e-30
2.52358e-30
2.52818e-30
2.53008e-30
2.53408e-30
2.53607e-30
2.5402e-30
2.54228e-30
2.54653e-30
2.54873e-30
2.55308e-30
2.55541e-30
2.55984e-30
2.56232e-30
2.56683e-30
2.56945e-30
2.57404e-30
2.57681e-30
2.57913e-30
2.5829e-30
3.18942e-30
3.10312e-30
3.10892e-30
3.11129e-30
3.11635e-30
3.11883e-30
3.12405e-30
3.12668e-30
3.13203e-30
3.13481e-30
3.14029e-30
3.14324e-30
3.14884e-30
3.15197e-30
3.15768e-30
3.161e-30
3.16682e-30
3.17033e-30
3.17327e-30
3.17805e-30
3.5985e-30
3.49945e-30
3.50603e-30
3.50878e-30
3.51452e-30
3.51738e-30
3.52335e-30
3.52634e-30
3.53249e-30
3.53566e-30
3.54194e-30
3.54532e-30
3.55173e-30
3.55533e-30
3.56186e-30
3.56567e-30
3.57234e-30
3.57637e-30
3.57974e-30
3.58523e-30
3.85325e-30
3.74616e-30
3.75325e-30
3.75622e-30
3.7624e-30
3.76548e-30
3.77194e-30
3.77516e-30
3.78179e-30
3.78521e-30
3.792e-30
3.79564e-30
3.80257e-30
3.80645e-30
3.81351e-30
3.81763e-30
3.82483e-30
3.82919e-30
3.83283e-30
3.83876e-30
4.01099e-30
3.89896e-30
3.90622e-30
3.90944e-30
3.9159e-30
3.91909e-30
3.92586e-30
3.9292e-30
3.93615e-30
3.93972e-30
3.94679e-30
3.95064e-30
3.95782e-30
3.96195e-30
3.96927e-30
3.97365e-30
3.98114e-30
3.98573e-30
3.98953e-30
3.99574e-30
4.11673e-30
4.00128e-30
4.00892e-30
4.01206e-30
4.01884e-30
4.02202e-30
4.02907e-30
4.03243e-30
4.03962e-30
4.04327e-30
4.05059e-30
4.05452e-30
4.06196e-30
4.06616e-30
4.07375e-30
4.0782e-30
4.08595e-30
4.09066e-30
4.09458e-30
4.10098e-30
4.19832e-30
4.08023e-30
4.08812e-30
4.09129e-30
4.09814e-30
4.10151e-30
4.10857e-30
4.11214e-30
4.1194e-30
4.12318e-30
4.13064e-30
4.13466e-30
4.14226e-30
4.14656e-30
4.15431e-30
4.15887e-30
4.16679e-30
4.17161e-30
4.17562e-30
4.18216e-30
4.27137e-30
4.15096e-30
4.159e-30
4.16224e-30
4.1692e-30
4.17264e-30
4.17984e-30
4.18346e-30
4.1909e-30
4.19475e-30
4.20233e-30
4.20646e-30
4.21416e-30
4.21859e-30
4.22643e-30
4.23113e-30
4.23917e-30
4.24411e-30
4.24819e-30
4.25486e-30
4.34471e-30
4.22198e-30
4.23016e-30
4.23345e-30
4.24055e-30
4.24404e-30
4.25138e-30
4.25509e-30
4.26261e-30
4.26659e-30
4.27425e-30
4.27855e-30
4.28627e-30
4.29091e-30
4.29884e-30
4.30367e-30
4.31183e-30
4.31688e-30
4.32103e-30
4.32783e-30
4.42373e-30
4.2985e-30
4.30679e-30
4.31018e-30
4.31743e-30
4.32098e-30
4.32849e-30
4.33225e-30
4.33997e-30
4.34397e-30
4.35186e-30
4.35613e-30
4.36419e-30
4.36874e-30
4.37697e-30
4.38179e-30
4.39019e-30
4.3953e-30
4.39955e-30
4.40648e-30
4.5125e-30
4.38448e-30
4.39287e-30
4.39636e-30
4.40388e-30
4.40733e-30
4.41517e-30
4.41887e-30
4.42682e-30
4.43087e-30
4.43897e-30
4.44332e-30
4.45157e-30
4.45622e-30
4.46463e-30
4.46956e-30
4.47815e-30
4.48337e-30
4.48772e-30
4.49481e-30
4.61449e-30
4.48326e-30
4.49172e-30
4.49545e-30
4.503e-30
4.50668e-30
4.5146e-30
4.51848e-30
4.5266e-30
4.53076e-30
4.53904e-30
4.54351e-30
4.55194e-30
4.55674e-30
4.56533e-30
4.57043e-30
4.57921e-30
4.58458e-30
4.58903e-30
4.5963e-30
4.73241e-30
4.59732e-30
4.60619e-30
4.60985e-30
4.61775e-30
4.62143e-30
4.62967e-30
4.63356e-30
4.64197e-30
4.6462e-30
4.65474e-30
4.65933e-30
4.66803e-30
4.67293e-30
4.6818e-30
4.68701e-30
4.69606e-30
4.70157e-30
4.70616e-30
4.71363e-30
4.86564e-30
4.72624e-30
4.73541e-30
4.73922e-30
4.74717e-30
4.75121e-30
4.75942e-30
4.76372e-30
4.77214e-30
4.77673e-30
4.78537e-30
4.79023e-30
4.79908e-30
4.80424e-30
4.81329e-30
4.81874e-30
4.82802e-30
4.83375e-30
4.83847e-30
4.84618e-30
5.00492e-30
4.86109e-30
4.87055e-30
4.87439e-30
4.88275e-30
4.88671e-30
4.89542e-30
4.8996e-30
4.90851e-30
4.91303e-30
4.9221e-30
4.927e-30
4.93624e-30
4.94146e-30
4.95089e-30
4.95644e-30
4.96607e-30
4.97194e-30
4.97682e-30
4.98479e-30
5.12697e-30
4.98236e-30
4.99172e-30
4.99552e-30
5.00372e-30
5.00775e-30
5.01632e-30
5.02058e-30
5.02943e-30
5.03403e-30
5.04307e-30
5.04809e-30
5.05731e-30
5.06272e-30
5.07217e-30
5.07794e-30
5.08764e-30
5.09378e-30
5.09872e-30
5.10688e-30
5.18071e-30
5.18064e-30
5.18057e-30
5.18059e-30
5.18048e-30
5.18053e-30
5.18042e-30
5.18048e-30
5.18038e-30
5.18043e-30
5.18037e-30
5.18039e-30
5.18037e-30
5.18037e-30
5.18036e-30
5.18036e-30
5.18035e-30
5.18035e-30
5.18035e-30
5.18035e-30
)
;

boundaryField
{
    movingWall
    {
        type            calculated;
        value           nonuniform List<scalar> 
20
(
5.18071e-30
5.18064e-30
5.18057e-30
5.18059e-30
5.18048e-30
5.18053e-30
5.18042e-30
5.18048e-30
5.18038e-30
5.18043e-30
5.18037e-30
5.18039e-30
5.18037e-30
5.18037e-30
5.18036e-30
5.18036e-30
5.18035e-30
5.18035e-30
5.18035e-30
5.18035e-30
)
;
    }
    fixedWalls
    {
        type            calculated;
        value           nonuniform List<scalar> 
60
(
8.54664e-31
1.2193e-30
1.86835e-30
2.59164e-30
3.18942e-30
3.5985e-30
3.85325e-30
4.01099e-30
4.11673e-30
4.19832e-30
4.27137e-30
4.34471e-30
4.42373e-30
4.5125e-30
4.61449e-30
4.73241e-30
4.86564e-30
5.00492e-30
5.12697e-30
5.18071e-30
8.54606e-31
1.21595e-30
1.86256e-30
2.5829e-30
3.17805e-30
3.58523e-30
3.83876e-30
3.99574e-30
4.10098e-30
4.18216e-30
4.25486e-30
4.32783e-30
4.40648e-30
4.49481e-30
4.5963e-30
4.71363e-30
4.84618e-30
4.98479e-30
5.10688e-30
5.18035e-30
8.54664e-31
8.54662e-31
8.54639e-31
8.54653e-31
8.54625e-31
8.54643e-31
8.54617e-31
8.5463e-31
8.54615e-31
8.54618e-31
8.54614e-31
8.54611e-31
8.54611e-31
8.54608e-31
8.54608e-31
8.54607e-31
8.54607e-31
8.54606e-31
8.54606e-31
8.54606e-31
)
;
    }
    frontAndBack
    {
        type            empty;
    }
}


// ************************************************************************* //
