/*--------------------------------*- C++ -*----------------------------------*\
| =========                 |                                                 |
| \\      /  F ield         | OpenFOAM: The Open Source CFD Toolbox           |
|  \\    /   O peration     | Version:  2506                                  |
|   \\  /    A nd           | Website:  www.openfoam.com                      |
|    \\/     M anipulation  |                                                 |
\*---------------------------------------------------------------------------*/
FoamFile
{
    version     2.0;
    format      ascii;
    arch        "LSB;label=32;scalar=64";
    class       surfaceScalarField;
    location    "5";
    object      PecletNoField;
}
// * * * * * * * * * * * * * * * * * * * * * * * * * * * * * * * * * * * * * //

dimensions      [0 0 0 0 0 0 0];

oriented        oriented;

internalField   nonuniform List<scalar> 
760
(
412.567
5.43784e-10
412.568
3.96486e-10
412.567
7.32599e-11
412.568
3.42037e-11
412.568
2.16705e-11
412.568
5.14726e-12
412.568
4.94782e-12
412.568
1.96131e-12
412.568
1.55998e-12
412.568
9.98649e-13
412.568
7.57975e-13
412.568
5.04195e-13
412.568
3.40171e-13
412.568
2.23303e-13
412.568
1.80734e-13
412.568
1.64207e-13
412.568
1.19132e-13
412.568
6.12459e-14
412.568
1.87644e-14
7.14187e-14
408.465
5.793e-10
407.662
4.77867e-10
407.777
9.48279e-12
407.877
4.65327e-11
407.978
1.3249e-11
408.079
1.07472e-11
408.179
6.18844e-12
408.279
4.01029e-12
408.38
2.69757e-12
408.48
1.7943e-12
408.58
1.25215e-12
408.68
8.88794e-13
408.78
6.27509e-13
408.88
4.2573e-13
408.98
2.62005e-13
409.079
2.29456e-13
409.179
2.12978e-13
409.248
1.24454e-13
409.329
8.26513e-14
6.24033e-16
404.378
7.10232e-10
403.491
8.14338e-10
403.621
8.13569e-11
403.734
2.91369e-11
403.847
2.59989e-11
403.959
6.64674e-12
404.071
7.62283e-12
404.183
4.27299e-12
404.294
3.31435e-12
404.405
2.22779e-12
404.517
1.60989e-12
404.627
1.14804e-12
404.737
8.08717e-13
404.847
5.61908e-13
404.957
4.66657e-13
405.066
3.68742e-13
405.175
2.21974e-13
405.25
1.55671e-13
405.339
7.27763e-14
2.92913e-14
401.149
1.20567e-09
400.196
1.20795e-09
400.336
1.03863e-10
400.457
7.08493e-11
400.579
6.98134e-12
400.699
1.05803e-11
400.82
4.58596e-12
400.94
4.57319e-12
401.06
3.08228e-12
401.179
2.36972e-12
401.299
1.74632e-12
401.417
1.279e-12
401.536
9.14332e-13
401.654
6.68661e-13
401.772
5.04893e-13
401.889
3.78779e-13
402.006
3.00017e-13
402.087
1.88701e-13
402.181
9.07508e-14
2.03167e-14
399.053
1.14703e-09
398.056
1.26571e-09
398.202
1.31792e-10
398.329
5.45152e-11
398.456
2.43245e-11
398.583
2.70903e-12
398.709
6.08221e-12
398.835
3.48729e-12
398.961
2.98357e-12
399.085
2.11213e-12
399.211
1.6412e-12
399.335
1.23038e-12
399.459
9.662e-13
399.582
7.42552e-13
399.706
5.38224e-13
399.828
3.90663e-13
399.951
2.88602e-13
400.036
2.0478e-13
400.135
1.50227e-13
6.84931e-14
397.817
1.25469e-09
396.793
1.29852e-09
396.944
1.29175e-10
397.074
6.7146e-11
397.205
1.25027e-11
397.335
7.60923e-12
397.465
2.55376e-12
397.594
3.30073e-12
397.723
2.36113e-12
397.851
1.98163e-12
397.98
1.48276e-12
398.107
1.17281e-12
398.235
9.24175e-13
398.361
7.42312e-13
398.488
5.71564e-13
398.614
3.83118e-13
398.741
3.03949e-13
398.827
1.61369e-13
398.929
8.21224e-14
1.04392e-14
397.111
1.13197e-09
396.072
1.23461e-09
396.225
1.30226e-10
396.357
5.55642e-11
396.491
1.9892e-11
396.622
1.28931e-13
396.754
3.96005e-12
396.885
2.16992e-12
397.016
2.08838e-12
397.146
1.56021e-12
397.277
1.19803e-12
397.406
9.41536e-13
397.536
7.63419e-13
397.664
6.52063e-13
397.793
5.29519e-13
397.921
4.06477e-13
398.049
2.34716e-13
398.137
8.68692e-14
398.24
5.84375e-14
4.75751e-14
396.695
1.13008e-09
395.648
1.18935e-09
395.802
1.25077e-10
395.935
5.84219e-11
396.069
1.34523e-11
396.202
5.06201e-12
396.335
8.46164e-13
396.467
1.95168e-12
396.6
1.31667e-12
396.731
1.18833e-12
396.863
9.46321e-13
396.993
7.4768e-13
397.124
6.30196e-13
397.254
4.75889e-13
397.384
4.14463e-13
397.512
2.96061e-13
397.642
1.90409e-13
397.731
9.23492e-14
397.835
3.64931e-14
4.99431e-15
396.425
1.02144e-09
395.372
1.10622e-09
395.527
1.2044e-10
395.661
5.09839e-11
395.796
1.57564e-11
395.929
1.47337e-12
396.063
2.12989e-12
396.196
7.69012e-13
396.33
8.70987e-13
396.462
6.55944e-13
396.594
5.98273e-13
396.725
5.54252e-13
396.857
4.52482e-13
396.987
3.7844e-13
397.118
2.48991e-13
397.247
1.91575e-13
397.377
1.06897e-13
397.466
1.065e-13
397.571
3.78152e-14
1.49667e-14
396.222
9.68688e-10
395.164
1.03665e-09
395.319
1.14706e-10
395.454
4.90449e-11
395.59
1.31148e-11
395.724
2.93509e-12
395.858
5.58476e-13
395.992
5.62558e-13
396.126
2.77871e-13
396.258
3.41492e-13
396.391
3.42104e-13
396.523
2.6435e-13
396.655
2.02595e-13
396.786
1.94872e-13
396.917
1.27691e-13
397.047
1.29619e-13
397.177
9.7517e-14
397.267
6.5958e-14
397.372
5.16577e-14
5.03371e-14
396.043
8.92509e-10
394.981
9.60027e-10
395.137
1.08455e-10
395.272
4.52384e-11
395.408
1.20655e-11
395.543
2.64528e-12
395.678
5.4304e-13
395.812
4.17868e-13
395.946
5.16122e-14
396.079
4.55233e-14
396.212
4.17118e-14
396.344
5.98819e-15
396.477
1.75033e-14
396.608
4.65791e-14
396.74
1.40848e-14
396.871
4.85946e-14
397.002
8.40037e-14
397.092
8.71201e-14
397.197
1.79553e-14
8.05202e-15
395.866
8.11614e-10
394.8
8.86256e-10
394.957
1.03444e-10
395.093
4.01965e-11
395.229
1.26989e-11
395.364
9.84175e-13
395.5
1.73369e-12
395.634
6.16409e-13
395.769
6.6046e-13
395.902
5.21525e-13
396.036
4.50332e-13
396.169
3.29863e-13
396.302
1.62302e-13
396.433
7.85973e-14
396.566
7.74783e-14
396.697
7.18482e-14
396.828
9.59235e-15
396.918
4.06137e-14
397.024
3.57283e-14
2.98948e-14
395.678
7.83378e-10
394.609
8.32272e-10
394.767
9.68196e-11
394.902
4.09212e-11
395.039
8.39452e-12
395.175
4.01145e-12
395.311
1.02574e-12
395.446
1.54559e-12
395.581
9.84076e-13
395.715
8.78619e-13
395.849
6.69008e-13
395.982
5.16436e-13
396.116
3.57462e-13
396.248
2.38432e-13
396.381
1.64497e-13
396.512
1.31298e-13
396.644
1.13327e-13
396.735
7.56065e-14
396.841
1.32369e-14
1.75978e-14
395.47
6.81553e-10
394.398
7.65747e-10
394.556
9.4925e-11
394.692
3.21324e-11
394.83
1.33408e-11
394.966
1.21898e-12
395.102
3.1988e-12
395.238
1.91202e-12
395.374
1.63593e-12
395.508
1.1295e-12
395.643
8.75541e-13
395.777
6.70563e-13
395.911
5.21854e-13
396.043
3.91092e-13
396.177
2.55167e-13
396.309
1.51567e-13
396.441
1.16666e-13
396.532
8.39589e-14
396.639
5.55869e-16
2.931e-14
395.237
7.20291e-10
394.16
7.48309e-10
394.319
8.6889e-11
394.455
4.00851e-11
394.594
4.27702e-12
394.73
6.12017e-12
394.868
2.84279e-12
395.004
2.76553e-12
395.14
1.93354e-12
395.275
1.47368e-12
395.411
1.04282e-12
395.545
7.36475e-13
395.68
5.06372e-13
395.813
3.81763e-13
395.947
2.78114e-13
396.079
1.65497e-13
396.212
1.72766e-13
396.304
9.78996e-14
396.411
7.0945e-14
2.15597e-14
394.974
5.89728e-10
393.891
6.92286e-10
394.051
9.475e-11
394.188
2.41859e-11
394.327
1.632e-11
394.464
3.95749e-12
394.602
4.88625e-12
394.739
2.93035e-12
394.876
2.21492e-12
395.012
1.52772e-12
395.148
1.0954e-12
395.283
7.6926e-13
395.418
5.39597e-13
395.552
3.80984e-13
395.687
3.02087e-13
395.82
2.49979e-13
395.954
1.5092e-13
396.046
1.29524e-13
396.153
9.6789e-14
5.28735e-14
394.684
7.33983e-10
393.594
7.33864e-10
393.755
7.42131e-11
393.894
4.49575e-11
394.033
1.50313e-12
394.171
8.47398e-12
394.31
4.40128e-12
394.448
3.37821e-12
394.585
2.18291e-12
394.722
1.52187e-12
394.859
1.01405e-12
394.994
6.62863e-13
395.131
4.87868e-13
395.265
4.00688e-13
395.401
2.92546e-13
395.535
2.45579e-13
395.669
1.75597e-13
395.761
1.17546e-13
395.869
6.29148e-14
6.1506e-15
394.388
4.92921e-10
393.293
6.27968e-10
393.455
1.10351e-10
393.594
1.5365e-11
393.734
2.39027e-11
393.873
5.09607e-12
394.013
5.64379e-12
394.151
2.62408e-12
394.289
1.97536e-12
394.427
1.19549e-12
394.564
8.01368e-13
394.701
5.33763e-13
394.838
4.35454e-13
394.973
3.29525e-13
395.109
2.27871e-13
395.244
1.38432e-13
395.379
8.79673e-14
395.472
6.10771e-14
395.581
1.82373e-14
4.06207e-14
394.162
8.23108e-10
393.083
7.36126e-10
393.239
2.12093e-11
393.374
3.89642e-11
393.51
1.21441e-11
393.645
3.8785e-12
393.781
3.43568e-12
393.916
1.43218e-12
394.052
1.11242e-12
394.187
6.43652e-13
394.322
5.26755e-13
394.457
3.23769e-13
394.592
2.27832e-13
394.726
1.6299e-13
394.862
1.79357e-13
394.996
1.20644e-13
395.131
6.81553e-14
395.224
7.89021e-16
395.333
5.1302e-15
8.49623e-15
395.252
395.252
395.253
395.253
395.253
395.253
395.253
395.253
395.253
395.253
395.253
395.253
395.253
395.253
395.253
395.253
395.253
395.253
395.253
)
;

boundaryField
{
    movingWall
    {
        type            calculated;
        value           uniform 0;
    }
    fixedWalls
    {
        type            calculated;
        value           nonuniform List<scalar> 
60
(
250
250
250
250
250
250
250
250
250
250
250
250
250
250
250
250
250
250
250
250
250
250
250
250
250
250
250
250
250
250
250
250
250
250
250
250
250
250
250
250
0
0
0
0
0
0
0
0
0
0
0
0
0
0
0
0
0
0
0
0
)
;
    }
    frontAndBack
    {
        type            empty;
    }
}


// ************************************************************************* //
