/*--------------------------------*- C++ -*----------------------------------*\
| =========                 |                                                 |
| \\      /  F ield         | OpenFOAM: The Open Source CFD Toolbox           |
|  \\    /   O peration     | Version:  2506                                  |
|   \\  /    A nd           | Website:  www.openfoam.com                      |
|    \\/     M anipulation  |                                                 |
\*---------------------------------------------------------------------------*/
FoamFile
{
    version     2.0;
    format      ascii;
    arch        "LSB;label=32;scalar=64";
    class       volScalarField;
    location    "5";
    object      QField;
}
// * * * * * * * * * * * * * * * * * * * * * * * * * * * * * * * * * * * * * //

dimensions      [0 0 -2 0 0 0 0];

internalField   nonuniform List<scalar> 
400
(
-7.14718e-19
5.56516e-17
4.98817e-18
8.48501e-19
2.04002e-20
9.45991e-21
-4.72984e-22
1.52772e-22
-1.92937e-23
3.3568e-24
-6.18018e-25
6.85678e-26
-2.84036e-26
-5.7186e-27
-5.72343e-27
-4.85385e-27
-4.24169e-27
-6.55264e-28
0
-4.29868e-28
-2.87523e-16
-1.23466e-17
-2.01272e-18
4.67419e-19
4.15369e-21
4.96991e-21
-1.10068e-22
5.3794e-23
-5.01151e-24
7.4514e-25
-2.24106e-25
-2.75413e-26
-4.08222e-26
-1.04896e-26
-4.66537e-27
-2.13311e-27
-1.82107e-27
-6.0765e-28
-5.46925e-28
-1.54293e-28
-3.8723e-16
-9.52255e-17
-8.5716e-18
-5.35431e-19
-1.98922e-20
-4.40661e-21
1.69215e-22
-5.77727e-23
5.37433e-24
-1.0962e-24
4.97397e-26
-5.44216e-26
-1.31385e-26
-6.50073e-27
-8.95606e-27
-2.06789e-27
0
-1.466e-27
0
0
-1.83272e-16
-4.61753e-17
-3.53108e-18
-1.91497e-19
-1.6367e-20
4.02426e-22
-2.58877e-22
3.58402e-23
-7.36759e-24
8.43326e-25
-2.07023e-25
-1.22991e-26
-1.81864e-26
-8.29477e-27
-4.48868e-27
0
1.59205e-28
0
0
0
-8.29327e-17
-2.0513e-17
-1.4939e-18
-8.86159e-20
-3.16702e-21
-9.55903e-22
1.18864e-22
-2.48115e-23
3.68034e-24
-8.59141e-25
7.70509e-26
-6.64358e-26
-1.1909e-26
-1.2883e-26
-6.40109e-27
-3.0424e-27
-3.20167e-27
-2.46252e-28
-2.21354e-28
0
9.18094e-19
-5.65475e-20
2.87531e-19
8.40425e-21
3.55412e-22
3.50402e-22
-8.21907e-23
1.99953e-23
-4.35737e-24
6.77748e-25
-2.44057e-25
9.05696e-29
-1.77034e-26
-7.61827e-27
-5.05349e-27
-3.13382e-27
-3.99281e-27
-3.29235e-27
-6.51437e-28
0
3.05934e-17
7.85132e-18
7.86118e-19
4.725e-20
3.12994e-21
9.82876e-23
5.0881e-23
-1.11364e-23
2.47709e-24
-8.52967e-25
6.05409e-26
-3.34037e-26
-1.46443e-26
-9.45395e-27
-7.18673e-27
4.20592e-28
4.0506e-27
-7.89447e-28
0
7.47604e-28
5.02762e-17
1.25196e-17
1.24329e-18
6.57382e-20
4.58362e-21
4.18596e-22
-2.46905e-23
1.19935e-23
-1.43248e-24
3.21798e-25
-2.45149e-26
-6.37246e-27
-1.05088e-26
-6.96179e-27
-6.33582e-27
-5.33668e-27
-5.3176e-27
0
0
-5.39066e-28
5.6554e-17
1.42867e-17
1.32696e-18
7.81835e-20
4.62355e-21
4.08818e-22
2.23767e-25
4.87562e-24
-2.36919e-26
9.00164e-26
7.31673e-28
-1.69794e-26
-6.68765e-27
-4.10309e-27
6.63733e-28
-2.75943e-27
0
1.96572e-28
6.74505e-28
1.55962e-28
5.94464e-17
1.47897e-17
1.41146e-18
7.30351e-20
5.88835e-21
2.99652e-22
3.73519e-23
2.6961e-24
-4.17426e-25
-1.46379e-26
-8.33864e-26
-1.55337e-26
-1.26636e-26
-9.48164e-27
-3.78555e-27
0
4.95825e-28
6.13389e-28
-5.20125e-28
-6.31171e-28
5.79308e-17
1.44722e-17
1.35068e-18
7.3405e-20
5.21978e-21
3.40199e-22
3.89989e-23
-2.86762e-25
1.23753e-24
-1.86632e-25
3.07439e-27
-2.48761e-26
-8.99523e-27
-7.2658e-27
-6.02736e-27
-1.11471e-27
-3.76093e-28
-4.96103e-28
-3.99995e-28
0
5.26669e-17
1.31677e-17
1.1983e-18
6.82405e-20
4.60992e-21
2.99677e-22
2.64451e-23
-2.60247e-24
1.13278e-24
-1.86608e-25
4.81736e-27
-3.18439e-26
-6.45566e-27
-2.43814e-27
-2.1034e-27
-1.352e-27
-9.43688e-28
0
0
0
4.75593e-17
1.1816e-17
1.10839e-18
5.82105e-20
4.33779e-21
3.17025e-22
-1.09276e-23
7.59057e-24
-1.59293e-24
4.02467e-25
-5.70073e-26
-1.29203e-26
-1.04501e-26
-6.11062e-27
-4.35755e-27
-4.47824e-28
-2.738e-27
-2.0527e-27
-3.68264e-28
1.12726e-28
3.67724e-17
9.28484e-18
8.15727e-19
4.89435e-20
3.13758e-21
1.13998e-22
5.3851e-23
-9.19896e-24
2.35213e-24
-5.60468e-25
1.11211e-25
-5.64368e-26
-1.31164e-26
-1.30345e-26
-2.87774e-27
0
-8.67674e-28
1.34717e-27
0
5.12164e-29
3.15714e-17
7.7364e-18
7.66394e-19
3.96837e-20
2.18989e-21
5.00923e-22
-5.49044e-23
1.40269e-23
-3.18629e-24
3.75194e-25
-1.59312e-25
4.30786e-27
-1.63358e-26
0
1.76378e-27
0
0
5.16816e-28
-2.23928e-28
1.84506e-28
1.29541e-17
3.54702e-18
2.68659e-19
1.49086e-20
2.44392e-21
-4.17822e-22
1.02943e-22
-2.23505e-23
3.27752e-24
-7.26021e-25
5.99872e-26
-2.42565e-26
-3.04942e-27
-6.73512e-27
-3.21287e-27
-4.45715e-27
-1.77119e-28
-1.45484e-27
-1.93794e-27
-9.10804e-28
2.02623e-17
4.99861e-18
5.12571e-19
3.74432e-20
-1.49739e-21
1.00615e-21
-1.5391e-22
2.55901e-23
-4.79708e-24
6.51169e-25
-1.41095e-25
-1.04006e-27
-9.42055e-27
-3.2483e-27
-3.5399e-27
-1.02057e-27
0
-9.00045e-28
0
-1.08783e-28
-1.92081e-17
-3.11559e-18
-4.9923e-19
-8.4525e-20
5.81159e-21
-1.8517e-21
2.00848e-22
-3.56931e-23
4.12398e-24
-7.58477e-25
4.72409e-26
-3.37595e-26
-3.75455e-27
-2.78721e-27
3.8289e-28
-1.77914e-27
-2.10451e-27
7.01916e-28
-4.6624e-28
0
1.56578e-16
9.33231e-17
7.94641e-18
9.02431e-19
4.3091e-20
6.47456e-21
1.06637e-22
5.58071e-23
-3.05031e-24
7.36729e-25
-1.73791e-25
-2.01792e-28
-1.68511e-26
-7.01243e-27
-2.73045e-27
0
0
9.40777e-29
7.07858e-29
6.94542e-29
2.07335e-16
1.0294e-16
9.49748e-18
9.93954e-19
4.31678e-20
8.76009e-21
-1.71424e-22
1.14536e-22
-1.20577e-23
2.37903e-24
-3.96855e-25
5.27369e-26
-1.99375e-26
-5.42447e-27
-6.37636e-27
-1.60952e-27
-1.7861e-28
-3.50218e-28
0
0
)
;

boundaryField
{
    movingWall
    {
        type            calculated;
        value           nonuniform List<scalar> 
20
(
2.34251e-16
2.41214e-16
8.83237e-18
1.82955e-18
-1.61665e-20
1.64507e-20
-1.27125e-21
2.693e-22
-3.67034e-23
6.55448e-24
-1.04303e-24
1.85429e-25
-2.97325e-26
-2.45842e-27
-8.68139e-27
-1.0852e-27
-4.81484e-28
-5.73796e-28
0
0
)
;
    }
    fixedWalls
    {
        type            calculated;
        value           nonuniform List<scalar> 
60
(
-3.21e-18
-1.50868e-15
-2.03138e-15
-9.61047e-16
-4.34367e-16
5.4318e-18
1.61118e-16
2.64256e-16
2.97167e-16
3.12241e-16
3.04267e-16
2.76579e-16
2.49779e-16
1.9314e-16
1.65875e-16
6.8179e-17
1.06558e-16
-1.00523e-16
8.21533e-16
1.08776e-15
0
-2.52793e-28
0
0
0
0
8.38332e-28
-7.55412e-28
6.1195e-29
-4.30749e-28
7.71995e-29
0
2.00595e-28
8.3913e-29
4.27027e-30
-9.37518e-28
-1.7823e-28
0
1.95044e-28
0
2.49747e-16
2.57343e-16
9.87791e-18
2.20978e-18
-4.40021e-20
2.20606e-20
-1.9453e-21
3.76812e-22
-5.4916e-23
9.47719e-24
-1.53388e-24
2.70363e-25
-3.82993e-26
5.39916e-27
-6.47271e-27
-3.86771e-27
-3.14115e-27
-7.22488e-28
3.23359e-28
-7.83239e-28
)
;
    }
    frontAndBack
    {
        type            empty;
    }
}


// ************************************************************************* //
