/*--------------------------------*- C++ -*----------------------------------*\
| =========                 |                                                 |
| \\      /  F ield         | OpenFOAM: The Open Source CFD Toolbox           |
|  \\    /   O peration     | Version:  2506                                  |
|   \\  /    A nd           | Website:  www.openfoam.com                      |
|    \\/     M anipulation  |                                                 |
\*---------------------------------------------------------------------------*/
FoamFile
{
    version     2.0;
    format      ascii;
    arch        "LSB;label=32;scalar=64";
    class       surfaceScalarField;
    location    "5";
    object      surfaceDivU;
}
// * * * * * * * * * * * * * * * * * * * * * * * * * * * * * * * * * * * * * //

dimensions      [0 0 -1 0 0 0 0];

internalField   nonuniform List<scalar> 
760
(
-5.47307e-11
9.58028e-11
7.72722e-12
-1.13021e-11
-3.89829e-11
-6.0807e-11
2.5116e-11
4.14649e-11
-1.3459e-11
-1.70189e-11
3.56244e-12
6.03757e-12
-1.68755e-12
-2.23755e-12
3.69631e-13
5.96439e-13
-1.81851e-13
-2.59181e-13
5.97685e-15
3.12915e-14
-1.73501e-14
-2.10991e-14
1.23917e-14
2.4554e-14
1.29984e-15
-2.4324e-14
1.06896e-15
6.10956e-15
-1.22929e-15
3.66095e-15
-1.20126e-14
6.28919e-15
-6.60775e-15
-2.19193e-15
1.30201e-14
4.98297e-15
9.35691e-15
-1.68993e-14
1.35525e-14
1.39231e-10
-2.02285e-10
-7.98364e-11
4.30998e-10
1.96408e-11
-9.24368e-11
-6.70045e-13
4.25669e-11
2.47761e-12
-7.93236e-12
2.37589e-13
3.74483e-12
4.64465e-14
-8.21815e-13
-3.23737e-14
3.43944e-13
-4.60388e-14
-1.30266e-13
4.21564e-15
1.98201e-15
2.08051e-14
9.92753e-15
-1.21616e-14
1.03322e-14
-1.95143e-14
-1.49928e-15
8.70155e-15
1.04208e-14
1.11794e-14
-1.28331e-14
1.61099e-14
-5.52294e-15
9.3988e-15
1.14895e-14
-2.49364e-14
-2.30365e-15
-1.27037e-14
-2.1084e-14
1.35525e-14
8.94811e-11
-1.62956e-10
4.18397e-10
-1.44486e-10
-6.95106e-11
1.12533e-11
3.53046e-11
-9.27102e-12
-6.66514e-12
1.23896e-12
2.68543e-12
1.68373e-13
-5.24317e-13
1.78938e-13
2.46052e-13
1.20973e-13
-8.22448e-14
7.94378e-15
7.6939e-15
-2.52935e-14
-5.45311e-16
2.46272e-14
2.09946e-14
-1.4546e-14
2.84358e-14
2.07566e-14
-1.11138e-14
2.37222e-14
-2.95355e-14
-2.12094e-14
-1.01433e-14
1.62438e-15
-2.12941e-16
-8.89914e-15
1.54878e-15
1.45628e-15
5.17223e-15
1.74537e-14
1.35525e-14
-3.96922e-10
1.75017e-10
-5.51629e-10
1.04423e-10
7.1493e-11
-2.32749e-11
-4.33367e-11
8.02921e-12
8.07247e-12
-2.68843e-12
-2.33812e-12
6.66788e-13
8.24228e-13
-1.96031e-13
-1.17135e-13
7.28175e-14
6.48951e-14
2.61914e-14
-8.36015e-15
-3.72912e-15
1.06265e-14
2.96878e-14
-1.4784e-14
2.44588e-15
1.6043e-14
-7.82656e-15
1.36267e-14
2.64126e-14
9.95045e-15
-1.76793e-14
2.86853e-15
3.37437e-14
-7.22992e-15
-1.56578e-14
1.73612e-14
1.14949e-15
2.5834e-14
1.54121e-15
1.35525e-14
6.76363e-10
-1.12689e-10
6.32777e-10
1.54834e-11
-8.67386e-11
-5.06552e-12
4.86775e-11
1.41132e-12
-1.00941e-11
-4.05506e-13
2.80888e-12
7.52831e-14
-9.47442e-13
-1.36014e-14
2.16144e-13
2.39222e-14
-4.24329e-14
4.43458e-14
3.43188e-14
-2.76203e-14
2.15071e-14
-2.29572e-15
9.40333e-15
-8.17796e-15
2.54301e-15
7.28918e-15
-4.89335e-15
1.74745e-15
6.11401e-15
-9.27476e-15
1.52174e-14
2.28251e-14
-7.27842e-15
-1.17859e-14
-1.46705e-14
-4.36021e-15
-1.07403e-14
1.31686e-14
0
-7.73568e-10
4.21213e-11
-6.2236e-10
-1.21189e-11
8.30844e-11
7.81103e-13
-4.76716e-11
-1.04215e-12
9.7639e-12
6.47521e-14
-2.74719e-12
-7.58736e-14
9.57763e-13
2.73746e-14
-1.47876e-13
1.66847e-14
5.91584e-14
2.45354e-14
-6.42348e-14
-2.00235e-14
-3.19808e-14
-8.88664e-16
-1.02921e-14
-1.20399e-14
6.49362e-15
3.32776e-14
-2.63396e-15
-3.40036e-14
7.4363e-15
4.10078e-14
-4.17825e-15
-2.24653e-14
-8.86772e-15
9.62008e-15
2.34789e-14
-1.87012e-15
2.39088e-14
1.26364e-14
-1.35525e-14
8.03571e-10
-5.19197e-11
6.11022e-10
5.87479e-11
-8.33455e-11
-1.24881e-11
4.66942e-11
4.8314e-12
-9.77502e-12
-1.1293e-12
2.6987e-12
2.66956e-13
-9.13703e-13
-1.27835e-13
1.89096e-13
3.04556e-14
-5.46465e-14
6.25574e-15
4.33226e-14
-1.14199e-14
1.90522e-14
9.38387e-15
3.15298e-14
8.61913e-15
-7.21963e-15
-1.25488e-14
9.63821e-15
-2.44776e-14
1.11062e-14
3.17794e-14
-8.667e-15
-6.1475e-15
1.66177e-14
3.58568e-14
-1.27126e-14
-6.06147e-15
-2.4825e-14
-1.51566e-14
-2.71051e-14
-7.96743e-10
2.79453e-11
-5.64762e-10
-4.33527e-11
7.56888e-11
7.56894e-12
-4.29921e-11
-3.56279e-12
8.91267e-12
7.6302e-13
-2.55957e-12
-2.32178e-13
8.16324e-13
-4.4146e-16
-1.52385e-13
9.01317e-15
4.94824e-14
-8.43095e-15
-4.53586e-14
-3.37299e-14
-1.04925e-15
3.83787e-14
-3.54595e-14
-2.66239e-14
-2.98068e-14
-4.41166e-14
-2.33647e-15
1.18631e-14
1.45256e-14
-2.44628e-14
3.83763e-14
1.57034e-14
1.31777e-14
8.56518e-15
-8.50549e-15
3.26237e-14
-1.74367e-14
-7.65148e-15
-1.35525e-14
7.81335e-10
-4.04272e-11
5.28978e-10
6.8334e-11
-7.16826e-11
-1.41613e-11
4.01924e-11
5.56227e-12
-8.38183e-12
-1.29161e-12
2.32695e-12
4.07564e-13
-8.07752e-13
-1.49699e-13
1.52967e-13
2.49672e-14
-9.16432e-14
-2.29085e-14
5.00074e-14
-3.78685e-14
1.2804e-14
5.14001e-14
-3.5281e-14
-2.3548e-14
-2.44668e-15
-1.18269e-14
-1.02632e-14
1.3227e-14
-2.3285e-14
-1.1667e-14
-1.41077e-14
-2.74247e-14
2.80112e-14
6.33922e-16
3.34777e-14
3.10083e-14
-3.7673e-15
-6.25459e-15
-1.35525e-14
-7.53428e-10
1.92175e-11
-4.74806e-10
-4.63241e-11
6.30835e-11
8.20525e-12
-3.59217e-11
-3.79152e-12
7.49778e-12
8.05473e-13
-2.06909e-12
-2.63919e-13
6.83021e-13
8.35114e-14
-1.50908e-13
-3.67813e-15
3.08662e-14
1.90797e-14
-3.64758e-14
-5.24163e-14
1.5048e-14
3.89753e-17
-9.39379e-17
1.91096e-14
3.84672e-15
-1.7118e-14
1.18232e-14
6.13895e-15
-1.58067e-14
3.9088e-14
-1.26831e-14
-2.50067e-14
3.63106e-15
2.98192e-14
-8.72398e-15
-4.17002e-14
-1.60398e-14
1.84412e-14
-1.35525e-14
7.26322e-10
-3.06829e-11
4.36687e-10
6.40108e-11
-5.86698e-11
-1.32782e-11
3.29357e-11
5.21006e-12
-6.95622e-12
-1.23934e-12
1.88868e-12
3.25024e-13
-6.03188e-13
-1.31977e-13
1.6631e-13
4.16135e-14
-6.42028e-14
1.1755e-14
-1.59014e-14
-3.7635e-14
4.10053e-15
1.48128e-14
2.08548e-15
3.87689e-14
-1.48258e-14
-1.72565e-14
3.34037e-14
1.1307e-15
2.98879e-14
3.85068e-14
1.74955e-14
-1.62994e-14
-1.55121e-14
3.48854e-14
-1.45351e-14
-4.2373e-14
2.09285e-14
1.14181e-14
0
-6.92994e-10
8.3077e-12
-3.85954e-10
-3.53375e-11
5.06017e-11
5.85209e-12
-2.89649e-11
-2.80013e-12
6.04191e-12
5.74974e-13
-1.69564e-12
-2.02301e-13
5.12824e-13
4.0363e-14
-1.12941e-13
-1.61064e-14
3.83228e-14
2.13412e-14
-6.9208e-15
-3.87314e-14
4.94811e-14
3.36794e-14
1.94269e-14
-1.57354e-15
-1.30003e-15
3.27582e-15
6.2338e-15
6.51689e-15
-7.68051e-15
3.04628e-14
1.09052e-15
-3.30595e-14
8.02445e-15
1.81669e-14
-1.64198e-14
-7.5022e-15
-9.51031e-15
1.82403e-14
0
6.65964e-10
-2.45978e-11
3.56469e-10
5.39969e-11
-4.75497e-11
-1.16135e-11
2.67398e-11
4.43572e-12
-5.66924e-12
-1.09897e-12
1.5337e-12
2.53206e-13
-4.88568e-13
-7.2776e-14
1.18176e-13
3.04131e-14
-5.57131e-14
-4.93004e-15
1.86881e-15
-1.11062e-14
-1.73752e-14
-8.87329e-16
-1.77246e-14
-1.7199e-14
1.10927e-14
3.97389e-14
3.07459e-14
2.25809e-14
5.08387e-15
3.31261e-14
-1.59831e-14
-2.97227e-14
2.64024e-15
-3.39455e-15
2.7158e-14
5.26013e-15
2.77506e-14
2.3858e-14
-1.35525e-14
-6.36565e-10
-7.86047e-13
-3.14085e-10
-1.56047e-11
4.03719e-11
1.52172e-12
-2.3403e-11
-1.15712e-12
4.82347e-12
1.37653e-13
-1.35327e-12
-7.22093e-14
4.46205e-13
4.16878e-15
-9.26927e-14
1.59652e-14
3.96769e-14
-1.44139e-14
-1.38623e-14
3.49658e-14
-7.11123e-16
3.0777e-15
4.02645e-14
-6.25717e-15
5.1227e-14
2.42603e-14
2.49611e-14
1.24179e-14
-1.68038e-15
-6.99079e-15
-1.71341e-14
-1.61421e-14
-7.74666e-16
-1.81907e-14
1.96019e-15
2.09308e-14
-1.74451e-14
7.35078e-15
-1.35525e-14
6.20174e-10
-2.79318e-11
3.00002e-10
4.51818e-11
-4.00073e-11
-1.0864e-11
2.23836e-11
3.74702e-12
-4.75803e-12
-1.07894e-12
1.28523e-12
3.01328e-13
-4.26071e-13
-1.17088e-13
9.4244e-14
5.83851e-14
-1.9125e-14
-3.40443e-14
5.19058e-14
4.45768e-14
-2.46835e-15
-7.55739e-15
-2.22614e-14
-8.60639e-15
-1.45489e-14
6.70717e-15
-1.9534e-14
-9.07642e-15
-2.14525e-14
-2.75784e-14
-1.71987e-14
9.51316e-16
3.51475e-15
-4.12238e-14
2.63214e-14
9.80585e-15
1.12434e-14
2.94977e-14
-1.35525e-14
-6.02924e-10
-1.30375e-11
-2.65685e-10
1.77388e-11
3.28903e-11
-7.2678e-12
-1.97155e-11
1.44073e-12
3.98042e-12
-8.15039e-13
-1.10099e-12
2.56531e-13
3.67368e-13
-4.82689e-14
-6.99031e-14
5.55825e-14
2.96575e-14
1.92159e-14
-1.48864e-14
2.17296e-14
-1.36954e-14
-2.2595e-14
2.03622e-14
-1.52694e-14
1.21797e-14
2.75303e-14
-1.71208e-14
5.77626e-15
-5.17462e-15
-1.61101e-14
-2.30738e-14
1.76634e-14
-3.49327e-14
-2.80726e-14
1.29822e-14
-1.9358e-14
4.70178e-15
3.11019e-14
-1.35525e-14
6.07626e-10
-2.91244e-11
2.76156e-10
5.27155e-11
-3.87174e-11
-2.27529e-11
2.03412e-11
6.51675e-12
-4.53893e-12
-2.23554e-12
1.30925e-12
1.08544e-12
-3.60054e-13
-1.52583e-13
1.44702e-13
1.50986e-13
1.12879e-14
2.95538e-14
1.40209e-14
2.41076e-14
-2.4169e-14
-3.41669e-14
-8.10135e-15
-3.05874e-14
2.11269e-14
1.4298e-14
6.78703e-15
1.4113e-14
6.72794e-15
-8.01017e-15
1.26646e-14
-2.09458e-15
-1.24979e-14
-1.08213e-14
-1.23829e-15
-1.22546e-15
1.28476e-14
2.00692e-14
0
-5.84034e-10
-1.21024e-10
-2.46193e-10
6.94858e-11
2.24812e-11
-2.20186e-11
-1.606e-11
1.25069e-11
3.38883e-12
-2.08035e-12
-3.76393e-13
1.70568e-12
3.58457e-13
-3.19374e-13
3.58381e-14
1.7004e-13
4.23734e-14
-2.93667e-14
-2.40802e-14
1.56515e-14
-4.05853e-14
-4.56755e-14
-8.18806e-15
8.15071e-16
7.28412e-15
-1.01186e-15
-6.84193e-16
-7.66472e-16
-1.68327e-14
-4.025e-15
-2.55805e-14
1.20386e-15
4.51142e-16
2.80626e-15
2.0082e-14
1.0246e-14
7.2216e-15
5.24507e-15
-1.35525e-14
5.32496e-10
1.05574e-11
2.9366e-10
3.42151e-10
-3.19929e-11
-1.28573e-10
2.64865e-11
6.79161e-11
-3.76351e-12
-2.26729e-11
1.76269e-12
7.68788e-12
-5.07791e-13
-2.65903e-12
1.04835e-13
7.14666e-13
-5.60887e-14
-2.71018e-13
-5.94371e-15
5.2299e-14
-4.27515e-15
-4.46902e-14
7.99127e-15
1.331e-14
-9.06245e-15
-1.88712e-14
-4.10728e-15
-3.74374e-15
1.40116e-14
-3.63536e-16
2.95906e-14
1.43751e-14
1.26011e-14
1.663e-15
-4.59098e-15
-2.61445e-15
-1.55291e-14
-1.97653e-15
-1.35525e-14
-1.79788e-10
-8.00819e-11
-2.86636e-11
1.87567e-11
-1.12215e-11
3.26616e-12
-1.43657e-12
3.38813e-13
-1.6263e-13
1.35525e-14
-2.71051e-14
-1.35525e-14
-1.35525e-14
0
0
-1.35525e-14
-1.35525e-14
0
0
)
;

boundaryField
{
    movingWall
    {
        type            calculated;
        value           nonuniform List<scalar> 
20
(
-3.27185e-10
-3.23905e-11
-1.27773e-10
7.0446e-11
-3.29326e-11
1.04897e-11
-3.95734e-12
1.0842e-12
-4.06576e-13
8.13152e-14
-5.42101e-14
0
-2.71051e-14
0
0
0
-2.71051e-14
0
0
0
)
;
    }
    fixedWalls
    {
        type            calculated;
        value           nonuniform List<scalar> 
60
(
-2.91705e-10
4.8331e-10
-8.8788e-10
5.61969e-10
-2.11934e-10
-1.34441e-11
9.76866e-11
-2.01526e-10
2.57417e-10
-3.38271e-10
3.76706e-10
-4.38072e-10
4.54687e-10
-5.03883e-10
5.02311e-10
-5.58174e-10
5.32099e-10
-5.90348e-10
3.483e-10
-3.27185e-10
0
2.71051e-14
0
2.71051e-14
0
0
-2.71051e-14
-2.71051e-14
0
-2.71051e-14
0
0
0
-2.71051e-14
0
-2.71051e-14
0
0
-2.71051e-14
0
-2.91705e-10
1.82243e-10
-1.66789e-10
8.88229e-11
-3.85909e-11
1.16729e-11
-4.54802e-12
1.17291e-12
-4.33652e-13
6.99507e-14
-5.7997e-14
2.32969e-14
1.48654e-15
1.11315e-15
1.02477e-15
-3.48334e-15
-2.05418e-14
7.32634e-15
1.87138e-14
0
)
;
    }
    frontAndBack
    {
        type            empty;
    }
}


// ************************************************************************* //
