/*--------------------------------*- C++ -*----------------------------------*\
| =========                 |                                                 |
| \\      /  F ield         | OpenFOAM: The Open Source CFD Toolbox           |
|  \\    /   O peration     | Version:  2506                                  |
|   \\  /    A nd           | Website:  www.openfoam.com                      |
|    \\/     M anipulation  |                                                 |
\*---------------------------------------------------------------------------*/
FoamFile
{
    version     2.0;
    format      ascii;
    arch        "LSB;label=32;scalar=64";
    class       volScalarField;
    location    "5";
    object      turbulenceProperties:L;
}
// * * * * * * * * * * * * * * * * * * * * * * * * * * * * * * * * * * * * * //

dimensions      [0 1 0 0 0 0 0];

internalField   nonuniform List<scalar> 
400
(
0.00102068
0.00102069
0.00102067
0.00102069
0.00102067
0.00102069
0.00102067
0.00102069
0.00102068
0.00102068
0.00102068
0.00102068
0.00102068
0.00102068
0.00102068
0.00102068
0.00102068
0.00102068
0.00102068
0.00102068
0.00102023
0.00104472
0.00104251
0.00104161
0.0010398
0.00103887
0.00103709
0.00103614
0.00103437
0.00103341
0.00103166
0.00103067
0.00102894
0.00102793
0.00102622
0.00102519
0.00102349
0.00102245
0.0010216
0.00102024
0.00101981
0.00104604
0.00104363
0.00104265
0.00104069
0.0010397
0.00103776
0.00103675
0.00103483
0.00103381
0.00103192
0.00103088
0.00102902
0.00102796
0.00102612
0.00102505
0.00102323
0.00102215
0.00102124
0.00101981
0.00101955
0.00104704
0.00104451
0.00104349
0.00104143
0.00104038
0.00103836
0.00103729
0.00103529
0.00103421
0.00103224
0.00103115
0.0010292
0.00102809
0.00102617
0.00102504
0.00102314
0.001022
0.00102106
0.00101956
0.00101943
0.00104777
0.00104516
0.0010441
0.00104199
0.0010409
0.00103881
0.00103772
0.00103565
0.00103454
0.00103251
0.00103138
0.00102937
0.00102823
0.00102625
0.00102509
0.00102313
0.00102196
0.00102098
0.00101944
0.00101938
0.00104822
0.00104556
0.00104449
0.00104233
0.00104123
0.0010391
0.00103799
0.00103589
0.00103475
0.00103268
0.00103153
0.00102949
0.00102833
0.00102631
0.00102513
0.00102314
0.00102194
0.00102095
0.00101938
0.00101935
0.00104848
0.00104579
0.00104471
0.00104253
0.00104142
0.00103927
0.00103814
0.00103602
0.00103488
0.00103279
0.00103163
0.00102957
0.00102839
0.00102636
0.00102516
0.00102315
0.00102194
0.00102094
0.00101935
0.00101934
0.00104864
0.00104592
0.00104485
0.00104265
0.00104153
0.00103937
0.00103823
0.0010361
0.00103495
0.00103285
0.00103168
0.0010296
0.00102843
0.00102637
0.00102518
0.00102316
0.00102194
0.00102094
0.00101934
0.00101933
0.00104872
0.00104602
0.00104491
0.00104273
0.00104159
0.00103944
0.00103828
0.00103615
0.00103499
0.00103289
0.00103171
0.00102963
0.00102844
0.00102639
0.00102519
0.00102316
0.00102194
0.00102093
0.00101933
0.00101931
0.00104879
0.00104608
0.00104497
0.00104278
0.00104165
0.00103947
0.00103833
0.00103618
0.00103503
0.00103291
0.00103174
0.00102965
0.00102846
0.0010264
0.00102519
0.00102316
0.00102194
0.00102093
0.00101932
0.0010193
0.00104884
0.00104614
0.00104502
0.00104282
0.00104169
0.00103951
0.00103836
0.00103622
0.00103505
0.00103293
0.00103176
0.00102966
0.00102847
0.0010264
0.0010252
0.00102316
0.00102193
0.00102092
0.00101931
0.00101929
0.0010489
0.00104619
0.00104507
0.00104286
0.00104173
0.00103954
0.0010384
0.00103624
0.00103508
0.00103294
0.00103178
0.00102966
0.00102849
0.0010264
0.0010252
0.00102315
0.00102193
0.00102091
0.0010193
0.00101928
0.00104896
0.00104623
0.00104512
0.0010429
0.00104176
0.00103958
0.00103843
0.00103627
0.0010351
0.00103297
0.00103179
0.00102969
0.00102849
0.00102642
0.0010252
0.00102316
0.00102192
0.0010209
0.00101928
0.00101927
0.00104903
0.00104628
0.00104517
0.00104297
0.0010418
0.00103963
0.00103846
0.0010363
0.00103512
0.00103299
0.0010318
0.0010297
0.0010285
0.00102642
0.0010252
0.00102315
0.00102191
0.00102089
0.00101927
0.00101926
0.0010491
0.00104633
0.00104524
0.001043
0.00104185
0.00103966
0.0010385
0.00103633
0.00103516
0.00103302
0.00103183
0.00102971
0.00102851
0.00102642
0.0010252
0.00102315
0.00102191
0.00102088
0.00101926
0.00101924
0.00104917
0.00104641
0.00104529
0.00104307
0.0010419
0.00103972
0.00103854
0.00103637
0.00103519
0.00103304
0.00103185
0.00102973
0.00102852
0.00102643
0.0010252
0.00102314
0.0010219
0.00102087
0.00101924
0.00101921
0.00104925
0.00104649
0.00104537
0.00104312
0.00104198
0.00103975
0.0010386
0.00103639
0.00103523
0.00103306
0.00103188
0.00102974
0.00102853
0.00102643
0.0010252
0.00102313
0.00102188
0.00102085
0.00101921
0.00101919
0.00104932
0.00104655
0.00104542
0.00104318
0.00104201
0.00103981
0.00103862
0.00103644
0.00103525
0.00103309
0.00103189
0.00102976
0.00102853
0.00102643
0.00102519
0.00102312
0.00102187
0.00102083
0.00101919
0.00101916
0.00104874
0.00104607
0.00104499
0.00104281
0.00104169
0.00103953
0.00103838
0.00103625
0.00103508
0.00103297
0.00103178
0.00102968
0.00102847
0.0010264
0.00102515
0.00102311
0.00102183
0.00102081
0.00101917
0.00101915
0.00101915
0.00101915
0.00101915
0.00101916
0.00101915
0.00101916
0.00101915
0.00101916
0.00101915
0.00101915
0.00101915
0.00101915
0.00101915
0.00101915
0.00101915
0.00101915
0.00101915
0.00101915
0.00101915
)
;

boundaryField
{
    movingWall
    {
        type            calculated;
        value           nonuniform List<scalar> 
20
(
0.00101915
0.00101915
0.00101915
0.00101915
0.00101916
0.00101915
0.00101916
0.00101915
0.00101916
0.00101915
0.00101915
0.00101915
0.00101915
0.00101915
0.00101915
0.00101915
0.00101915
0.00101915
0.00101915
0.00101915
)
;
    }
    fixedWalls
    {
        type            calculated;
        value           nonuniform List<scalar> 
60
(
0.00102068
0.00102023
0.00101981
0.00101955
0.00101943
0.00101938
0.00101935
0.00101934
0.00101933
0.00101931
0.0010193
0.00101929
0.00101928
0.00101927
0.00101926
0.00101924
0.00101921
0.00101919
0.00101916
0.00101915
0.00102068
0.00102024
0.00101981
0.00101956
0.00101944
0.00101938
0.00101935
0.00101934
0.00101933
0.00101932
0.00101931
0.0010193
0.00101928
0.00101927
0.00101926
0.00101924
0.00101921
0.00101919
0.00101917
0.00101915
0.00102068
0.00102069
0.00102067
0.00102069
0.00102067
0.00102069
0.00102067
0.00102069
0.00102068
0.00102068
0.00102068
0.00102068
0.00102068
0.00102068
0.00102068
0.00102068
0.00102068
0.00102068
0.00102068
0.00102068
)
;
    }
    frontAndBack
    {
        type            empty;
    }
}


// ************************************************************************* //
