/*--------------------------------*- C++ -*----------------------------------*\
| =========                 |                                                 |
| \\      /  F ield         | OpenFOAM: The Open Source CFD Toolbox           |
|  \\    /   O peration     | Version:  2506                                  |
|   \\  /    A nd           | Website:  www.openfoam.com                      |
|    \\/     M anipulation  |                                                 |
\*---------------------------------------------------------------------------*/
FoamFile
{
    version     2.0;
    format      ascii;
    arch        "LSB;label=32;scalar=64";
    class       volScalarField;
    location    "5";
    object      turbulenceProperties:omega;
}
// * * * * * * * * * * * * * * * * * * * * * * * * * * * * * * * * * * * * * //

dimensions      [0 0 -1 0 0 0 0];

internalField   nonuniform List<scalar> 
400
(
6.78075
6.78071
6.78075
6.78068
6.78075
6.78067
6.78073
6.78068
6.78071
6.78069
6.78069
6.78069
6.78069
6.78068
6.78069
6.78068
6.78068
6.78068
6.78068
6.78068
7.09142
6.92522
6.93948
6.94533
6.9571
6.96316
6.97492
6.98114
6.9929
6.9993
7.01104
7.01763
7.02934
7.03613
7.04782
7.0548
7.06647
7.07365
7.07951
7.08895
7.48274
7.29504
7.31139
7.31807
7.33152
7.33837
7.35181
7.3588
7.37218
7.37935
7.39267
7.40002
7.41328
7.42081
7.434
7.44172
7.45486
7.46274
7.46933
7.47984
7.79685
7.59216
7.60998
7.61724
7.6319
7.63937
7.65398
7.66162
7.6762
7.68401
7.69852
7.70654
7.72097
7.7292
7.74356
7.75199
7.7663
7.77492
7.7821
7.79355
8.00262
7.78618
7.80497
7.81267
7.82812
7.83603
7.85147
7.85953
7.87494
7.8832
7.89854
7.90702
7.92227
7.93098
7.94615
7.95508
7.97019
7.97932
7.98691
7.99902
8.12463
7.90106
7.9205
7.9284
7.94439
7.95254
7.96847
7.97682
7.99269
8.00124
8.01706
8.02583
8.04158
8.05058
8.06624
8.07547
8.09107
8.10052
8.10835
8.12086
8.19457
7.9669
7.98669
7.99474
8.01102
8.01932
8.03552
8.04402
8.06019
8.0689
8.085
8.09394
8.10996
8.11914
8.13508
8.14449
8.16036
8.16999
8.17796
8.1907
8.23586
8.00575
8.02585
8.03388
8.05033
8.05875
8.0751
8.08372
8.10004
8.10885
8.12514
8.13414
8.15038
8.1596
8.17576
8.18523
8.2013
8.21101
8.21907
8.23195
8.26278
8.03116
8.05126
8.05948
8.07593
8.08449
8.10087
8.10962
8.12601
8.13491
8.15127
8.16036
8.17667
8.186
8.20222
8.2118
8.22795
8.23775
8.24585
8.25882
8.28318
8.05037
8.07051
8.0788
8.09539
8.1039
8.12048
8.12916
8.14571
8.1546
8.17107
8.1802
8.19659
8.20597
8.22228
8.2319
8.24812
8.25798
8.26612
8.27915
8.30114
8.06731
8.08752
8.09584
8.11252
8.12106
8.13771
8.14644
8.16303
8.17197
8.18852
8.19768
8.21418
8.22355
8.23998
8.2496
8.26593
8.27581
8.28399
8.29708
8.3189
8.08404
8.10436
8.11271
8.12946
8.13804
8.15476
8.16351
8.18022
8.18915
8.20582
8.21495
8.23161
8.24094
8.25748
8.26711
8.28354
8.29344
8.30167
8.31481
8.33775
8.10182
8.12227
8.13064
8.14745
8.15608
8.17285
8.18167
8.19841
8.20743
8.22412
8.23337
8.24997
8.25948
8.27599
8.28575
8.30219
8.31218
8.32043
8.33364
8.35851
8.12143
8.14204
8.15043
8.16723
8.17604
8.19277
8.20174
8.21851
8.22762
8.24435
8.25367
8.27034
8.27991
8.2965
8.30631
8.32283
8.33287
8.34116
8.35444
8.38203
8.14356
8.16438
8.1727
8.18972
8.19846
8.21537
8.22433
8.24121
8.25036
8.2672
8.27657
8.29335
8.30294
8.31965
8.32949
8.34612
8.35621
8.36455
8.3779
8.40865
8.16872
8.18953
8.19803
8.21505
8.22394
8.24088
8.24996
8.2669
8.27614
8.29307
8.3025
8.31937
8.32905
8.34584
8.35576
8.37248
8.38265
8.39104
8.40447
8.43808
8.19645
8.21738
8.22592
8.24319
8.25195
8.26921
8.27815
8.29538
8.30453
8.32169
8.3311
8.34816
8.35784
8.3748
8.38475
8.40162
8.41184
8.42029
8.43381
8.46805
8.22484
8.24588
8.25452
8.27178
8.28075
8.29795
8.30712
8.32431
8.33366
8.35082
8.36039
8.37748
8.3873
8.40431
8.41439
8.43133
8.44165
8.45015
8.46377
8.4938
8.25426
8.27457
8.28291
8.29974
8.3084
8.32522
8.33417
8.35101
8.36022
8.37708
8.38657
8.40342
8.41324
8.43004
8.44021
8.45697
8.46748
8.47592
8.48958
8.50493
8.50494
8.50489
8.50493
8.50486
8.50493
8.50485
8.50492
8.50485
8.5049
8.50485
8.50488
8.50486
8.50487
8.50486
8.50486
8.50486
8.50486
8.50486
8.50486
)
;

boundaryField
{
    movingWall
    {
        type            calculated;
        value           nonuniform List<scalar> 
20
(
8.50493
8.50494
8.50489
8.50493
8.50486
8.50493
8.50485
8.50492
8.50485
8.5049
8.50485
8.50488
8.50486
8.50487
8.50486
8.50486
8.50486
8.50486
8.50486
8.50486
)
;
    }
    fixedWalls
    {
        type            calculated;
        value           nonuniform List<scalar> 
60
(
6.78075
7.09142
7.48274
7.79685
8.00262
8.12463
8.19457
8.23586
8.26278
8.28318
8.30114
8.3189
8.33775
8.35851
8.38203
8.40865
8.43808
8.46805
8.4938
8.50493
6.78068
7.08895
7.47984
7.79355
7.99902
8.12086
8.1907
8.23195
8.25882
8.27915
8.29708
8.31481
8.33364
8.35444
8.3779
8.40447
8.43381
8.46377
8.48958
8.50486
6.78075
6.78071
6.78075
6.78068
6.78075
6.78067
6.78073
6.78068
6.78071
6.78069
6.78069
6.78069
6.78069
6.78068
6.78069
6.78068
6.78068
6.78068
6.78068
6.78068
)
;
    }
    frontAndBack
    {
        type            empty;
    }
}


// ************************************************************************* //
