/*--------------------------------*- C++ -*----------------------------------*\
| =========                 |                                                 |
| \\      /  F ield         | OpenFOAM: The Open Source CFD Toolbox           |
|  \\    /   O peration     | Version:  2506                                  |
|   \\  /    A nd           | Website:  www.openfoam.com                      |
|    \\/     M anipulation  |                                                 |
\*---------------------------------------------------------------------------*/
FoamFile
{
    version     2.0;
    format      ascii;
    arch        "LSB;label=32;scalar=64";
    class       volScalarField;
    location    "5";
    object      turbulenceProperties:nuEff;
}
// * * * * * * * * * * * * * * * * * * * * * * * * * * * * * * * * * * * * * //

dimensions      [0 2 -1 0 0 0 0];

internalField   nonuniform List<scalar> 
400
(
1.21192e-05
1.21192e-05
1.21192e-05
1.21192e-05
1.21192e-05
1.21192e-05
1.21192e-05
1.21192e-05
1.21192e-05
1.21192e-05
1.21192e-05
1.21192e-05
1.21192e-05
1.21192e-05
1.21192e-05
1.21192e-05
1.21192e-05
1.21192e-05
1.21192e-05
1.21192e-05
1.22144e-05
1.22675e-05
1.22626e-05
1.22606e-05
1.22566e-05
1.22545e-05
1.22506e-05
1.22485e-05
1.22446e-05
1.22424e-05
1.22386e-05
1.22364e-05
1.22326e-05
1.22304e-05
1.22267e-05
1.22244e-05
1.22207e-05
1.22184e-05
1.22166e-05
1.22136e-05
1.23346e-05
1.23947e-05
1.2389e-05
1.23867e-05
1.23821e-05
1.23798e-05
1.23752e-05
1.23729e-05
1.23684e-05
1.2366e-05
1.23616e-05
1.23592e-05
1.23549e-05
1.23525e-05
1.23482e-05
1.23458e-05
1.23416e-05
1.23391e-05
1.2337e-05
1.23337e-05
1.24314e-05
1.2497e-05
1.24908e-05
1.24882e-05
1.24832e-05
1.24806e-05
1.24757e-05
1.24731e-05
1.24683e-05
1.24656e-05
1.24609e-05
1.24582e-05
1.24535e-05
1.24508e-05
1.24462e-05
1.24435e-05
1.2439e-05
1.24363e-05
1.2434e-05
1.24304e-05
1.2495e-05
1.25643e-05
1.25578e-05
1.25551e-05
1.25498e-05
1.25471e-05
1.25418e-05
1.25391e-05
1.25339e-05
1.25312e-05
1.25261e-05
1.25233e-05
1.25183e-05
1.25155e-05
1.25106e-05
1.25078e-05
1.2503e-05
1.25001e-05
1.24977e-05
1.24939e-05
1.25328e-05
1.26044e-05
1.25976e-05
1.25949e-05
1.25894e-05
1.25865e-05
1.25812e-05
1.25783e-05
1.2573e-05
1.25701e-05
1.25649e-05
1.2562e-05
1.25569e-05
1.25539e-05
1.25489e-05
1.25459e-05
1.2541e-05
1.2538e-05
1.25355e-05
1.25316e-05
1.25544e-05
1.26274e-05
1.26205e-05
1.26177e-05
1.26121e-05
1.26092e-05
1.26037e-05
1.26008e-05
1.25954e-05
1.25925e-05
1.25872e-05
1.25842e-05
1.2579e-05
1.2576e-05
1.25709e-05
1.25678e-05
1.25628e-05
1.25597e-05
1.25572e-05
1.25532e-05
1.25672e-05
1.2641e-05
1.26339e-05
1.26312e-05
1.26255e-05
1.26226e-05
1.26171e-05
1.26141e-05
1.26086e-05
1.26057e-05
1.26003e-05
1.25973e-05
1.2592e-05
1.2589e-05
1.25838e-05
1.25808e-05
1.25757e-05
1.25726e-05
1.25701e-05
1.2566e-05
1.25756e-05
1.26498e-05
1.26428e-05
1.26399e-05
1.26343e-05
1.26313e-05
1.26258e-05
1.26227e-05
1.26173e-05
1.26143e-05
1.26089e-05
1.26059e-05
1.26005e-05
1.25975e-05
1.25923e-05
1.25892e-05
1.25841e-05
1.2581e-05
1.25784e-05
1.25743e-05
1.25819e-05
1.26565e-05
1.26495e-05
1.26465e-05
1.26408e-05
1.26379e-05
1.26323e-05
1.26293e-05
1.26238e-05
1.26208e-05
1.26153e-05
1.26123e-05
1.2607e-05
1.26039e-05
1.25986e-05
1.25956e-05
1.25904e-05
1.25873e-05
1.25847e-05
1.25806e-05
1.25874e-05
1.26624e-05
1.26553e-05
1.26524e-05
1.26466e-05
1.26437e-05
1.2638e-05
1.2635e-05
1.26295e-05
1.26265e-05
1.2621e-05
1.2618e-05
1.26126e-05
1.26095e-05
1.26042e-05
1.26012e-05
1.2596e-05
1.25928e-05
1.25903e-05
1.25862e-05
1.25929e-05
1.26682e-05
1.26611e-05
1.26581e-05
1.26524e-05
1.26494e-05
1.26437e-05
1.26407e-05
1.26351e-05
1.26321e-05
1.26266e-05
1.26236e-05
1.26181e-05
1.26151e-05
1.26098e-05
1.26067e-05
1.26015e-05
1.25983e-05
1.25957e-05
1.25916e-05
1.25987e-05
1.26744e-05
1.26672e-05
1.26642e-05
1.26585e-05
1.26555e-05
1.26498e-05
1.26468e-05
1.26412e-05
1.26381e-05
1.26326e-05
1.26295e-05
1.26241e-05
1.2621e-05
1.26157e-05
1.26126e-05
1.26073e-05
1.26042e-05
1.26016e-05
1.25974e-05
1.26051e-05
1.26812e-05
1.26739e-05
1.2671e-05
1.26652e-05
1.26621e-05
1.26565e-05
1.26534e-05
1.26478e-05
1.26447e-05
1.26392e-05
1.26361e-05
1.26307e-05
1.26276e-05
1.26222e-05
1.26191e-05
1.26138e-05
1.26106e-05
1.2608e-05
1.26039e-05
1.26124e-05
1.26889e-05
1.26815e-05
1.26786e-05
1.26728e-05
1.26697e-05
1.2664e-05
1.26609e-05
1.26553e-05
1.26522e-05
1.26466e-05
1.26435e-05
1.2638e-05
1.26349e-05
1.26295e-05
1.26264e-05
1.26211e-05
1.26179e-05
1.26153e-05
1.26111e-05
1.26206e-05
1.26975e-05
1.26902e-05
1.26872e-05
1.26814e-05
1.26783e-05
1.26726e-05
1.26694e-05
1.26638e-05
1.26606e-05
1.2655e-05
1.26519e-05
1.26464e-05
1.26433e-05
1.26379e-05
1.26347e-05
1.26293e-05
1.26261e-05
1.26235e-05
1.26193e-05
1.26296e-05
1.27071e-05
1.26998e-05
1.26968e-05
1.26908e-05
1.26878e-05
1.26819e-05
1.26789e-05
1.26731e-05
1.267e-05
1.26643e-05
1.26612e-05
1.26556e-05
1.26525e-05
1.2647e-05
1.26438e-05
1.26384e-05
1.26352e-05
1.26325e-05
1.26283e-05
1.26388e-05
1.27169e-05
1.27095e-05
1.27064e-05
1.27005e-05
1.26974e-05
1.26915e-05
1.26884e-05
1.26826e-05
1.26795e-05
1.26738e-05
1.26706e-05
1.2665e-05
1.26618e-05
1.26564e-05
1.26531e-05
1.26477e-05
1.26445e-05
1.26418e-05
1.26375e-05
1.26467e-05
1.27235e-05
1.27164e-05
1.27135e-05
1.27077e-05
1.27047e-05
1.26989e-05
1.26959e-05
1.26902e-05
1.26871e-05
1.26816e-05
1.26784e-05
1.26729e-05
1.26697e-05
1.26643e-05
1.2661e-05
1.26557e-05
1.26524e-05
1.26497e-05
1.26454e-05
1.26502e-05
1.26501e-05
1.26501e-05
1.26501e-05
1.26501e-05
1.26501e-05
1.26501e-05
1.26501e-05
1.26501e-05
1.26501e-05
1.26501e-05
1.26501e-05
1.26501e-05
1.26501e-05
1.26501e-05
1.26501e-05
1.26501e-05
1.26501e-05
1.26501e-05
1.26501e-05
)
;

boundaryField
{
    movingWall
    {
        type            calculated;
        value           uniform 1e-05;
    }
    fixedWalls
    {
        type            calculated;
        value           uniform 1e-05;
    }
    frontAndBack
    {
        type            empty;
    }
}


// ************************************************************************* //
