/*--------------------------------*- C++ -*----------------------------------*\
| =========                 |                                                 |
| \\      /  F ield         | OpenFOAM: The Open Source CFD Toolbox           |
|  \\    /   O peration     | Version:  2506                                  |
|   \\  /    A nd           | Website:  www.openfoam.com                      |
|    \\/     M anipulation  |                                                 |
\*---------------------------------------------------------------------------*/
FoamFile
{
    version     2.0;
    format      ascii;
    arch        "LSB;label=32;scalar=64";
    class       volSymmTensorField;
    location    "5";
    object      turbulenceProperties:R;
}
// * * * * * * * * * * * * * * * * * * * * * * * * * * * * * * * * * * * * * //

dimensions      [0 2 -2 0 0 0 0];

internalField   nonuniform List<symmTensor> 
400
(
(9.57997e-06 -0 -0 9.57997e-06 -0 9.57997e-06)
(9.57998e-06 5.74422e-20 -0 9.57998e-06 -0 9.57998e-06)
(9.57989e-06 -0 -0 9.57989e-06 -0 9.57989e-06)
(9.57997e-06 -5.74423e-20 -0 9.57997e-06 -0 9.57997e-06)
(9.57985e-06 -5.74411e-20 -0 9.57985e-06 -0 9.57985e-06)
(9.57994e-06 -0 -0 9.57994e-06 -0 9.57994e-06)
(9.57983e-06 -0 -0 9.57983e-06 -0 9.57983e-06)
(9.57989e-06 -0 -0 9.57989e-06 -0 9.57989e-06)
(9.57984e-06 -0 -0 9.57984e-06 -0 9.57984e-06)
(9.57985e-06 -0 -0 9.57985e-06 -0 9.57985e-06)
(9.57984e-06 -0 -0 9.57984e-06 -0 9.57984e-06)
(9.57983e-06 -0 -0 9.57983e-06 -0 9.57983e-06)
(9.57983e-06 -0 -0 9.57983e-06 -0 9.57983e-06)
(9.57982e-06 -0 -0 9.57982e-06 -0 9.57982e-06)
(9.57982e-06 -0 -0 9.57982e-06 -0 9.57982e-06)
(9.57982e-06 -0 -0 9.57982e-06 -0 9.57982e-06)
(9.57982e-06 -0 -0 9.57982e-06 -0 9.57982e-06)
(9.57982e-06 -0 -0 9.57982e-06 -0 9.57982e-06)
(9.57982e-06 -0 -0 9.57982e-06 -0 9.57982e-06)
(9.57982e-06 -0 -0 9.57982e-06 -0 9.57982e-06)
(1.04688e-05 -0 -0 1.04688e-05 -0 1.04688e-05)
(1.04688e-05 -0 -0 1.04688e-05 -0 1.04688e-05)
(1.04675e-05 -0 -0 1.04675e-05 -0 1.04675e-05)
(1.0467e-05 -0 -0 1.0467e-05 -0 1.0467e-05)
(1.04662e-05 -0 -0 1.04662e-05 -0 1.04662e-05)
(1.04657e-05 -0 -0 1.04657e-05 -0 1.04657e-05)
(1.0465e-05 -0 -0 1.0465e-05 -0 1.0465e-05)
(1.04646e-05 -0 -0 1.04646e-05 -0 1.04646e-05)
(1.0464e-05 -0 -0 1.0464e-05 -0 1.0464e-05)
(1.04637e-05 -0 -0 1.04637e-05 -0 1.04637e-05)
(1.04632e-05 -0 -0 1.04632e-05 -0 1.04632e-05)
(1.04629e-05 -0 -0 1.04629e-05 -0 1.04629e-05)
(1.04625e-05 -0 -0 1.04625e-05 -0 1.04625e-05)
(1.04623e-05 -0 -0 1.04623e-05 -0 1.04623e-05)
(1.04621e-05 -0 -0 1.04621e-05 -0 1.04621e-05)
(1.04619e-05 -0 -0 1.04619e-05 -0 1.04619e-05)
(1.04617e-05 -0 -0 1.04617e-05 -0 1.04617e-05)
(1.04617e-05 -0 -0 1.04617e-05 -0 1.04617e-05)
(1.04616e-05 -0 -0 1.04616e-05 -0 1.04616e-05)
(1.04616e-05 -0 -0 1.04616e-05 -0 1.04616e-05)
(1.16463e-05 -0 -0 1.16463e-05 -0 1.16463e-05)
(1.16462e-05 -0 -0 1.16462e-05 -0 1.16462e-05)
(1.16447e-05 -0 -0 1.16447e-05 -0 1.16447e-05)
(1.1644e-05 -0 -0 1.1644e-05 -0 1.1644e-05)
(1.1643e-05 -0 -0 1.1643e-05 -0 1.1643e-05)
(1.16424e-05 -0 -0 1.16424e-05 -0 1.16424e-05)
(1.16415e-05 -0 -0 1.16415e-05 -0 1.16415e-05)
(1.1641e-05 -0 -0 1.1641e-05 -0 1.1641e-05)
(1.16403e-05 -0 -0 1.16403e-05 -0 1.16403e-05)
(1.16398e-05 -0 -0 1.16398e-05 -0 1.16398e-05)
(1.16393e-05 -0 -0 1.16393e-05 -0 1.16393e-05)
(1.16389e-05 -0 -0 1.16389e-05 -0 1.16389e-05)
(1.16384e-05 -0 -0 1.16384e-05 -0 1.16384e-05)
(1.16381e-05 -0 -0 1.16381e-05 -0 1.16381e-05)
(1.16378e-05 -0 -0 1.16378e-05 -0 1.16378e-05)
(1.16376e-05 -0 -0 1.16376e-05 -0 1.16376e-05)
(1.16375e-05 -0 -0 1.16375e-05 -0 1.16375e-05)
(1.16373e-05 -0 -0 1.16373e-05 -0 1.16373e-05)
(1.16373e-05 -0 -0 1.16373e-05 -0 1.16373e-05)
(1.16372e-05 -0 -0 1.16372e-05 -0 1.16372e-05)
(1.26383e-05 -0 -0 1.26383e-05 -0 1.26383e-05)
(1.26383e-05 -0 -0 1.26383e-05 -0 1.26383e-05)
(1.26364e-05 -0 -0 1.26364e-05 -0 1.26364e-05)
(1.26357e-05 -0 -0 1.26357e-05 -0 1.26357e-05)
(1.26344e-05 -0 -0 1.26344e-05 -0 1.26344e-05)
(1.26337e-05 -0 -0 1.26337e-05 -0 1.26337e-05)
(1.26327e-05 -0 -0 1.26327e-05 -0 1.26327e-05)
(1.26321e-05 -0 -0 1.26321e-05 -0 1.26321e-05)
(1.26312e-05 -0 -0 1.26312e-05 -0 1.26312e-05)
(1.26307e-05 -0 -0 1.26307e-05 -0 1.26307e-05)
(1.263e-05 -0 -0 1.263e-05 -0 1.263e-05)
(1.26296e-05 -0 -0 1.26296e-05 -0 1.26296e-05)
(1.26291e-05 -0 -0 1.26291e-05 -0 1.26291e-05)
(1.26287e-05 -0 -0 1.26287e-05 -0 1.26287e-05)
(1.26284e-05 -0 -0 1.26284e-05 -0 1.26284e-05)
(1.26281e-05 -0 -0 1.26281e-05 -0 1.26281e-05)
(1.26279e-05 -0 -0 1.26279e-05 -0 1.26279e-05)
(1.26278e-05 -0 -0 1.26278e-05 -0 1.26278e-05)
(1.26277e-05 -0 -0 1.26277e-05 -0 1.26277e-05)
(1.26277e-05 -0 -0 1.26277e-05 -0 1.26277e-05)
(1.3311e-05 -0 -0 1.3311e-05 -0 1.3311e-05)
(1.3311e-05 -0 -0 1.3311e-05 -0 1.3311e-05)
(1.33089e-05 -0 -0 1.33089e-05 -0 1.33089e-05)
(1.3308e-05 -0 -0 1.3308e-05 -0 1.3308e-05)
(1.33067e-05 -0 -0 1.33067e-05 -0 1.33067e-05)
(1.33059e-05 -0 -0 1.33059e-05 -0 1.33059e-05)
(1.33048e-05 -0 -0 1.33048e-05 -0 1.33048e-05)
(1.33041e-05 -0 -0 1.33041e-05 -0 1.33041e-05)
(1.33031e-05 -0 -0 1.33031e-05 -0 1.33031e-05)
(1.33025e-05 -0 -0 1.33025e-05 -0 1.33025e-05)
(1.33017e-05 -0 -0 1.33017e-05 -0 1.33017e-05)
(1.33012e-05 -0 -0 1.33012e-05 -0 1.33012e-05)
(1.33007e-05 -0 -0 1.33007e-05 -0 1.33007e-05)
(1.33003e-05 -0 -0 1.33003e-05 -0 1.33003e-05)
(1.32999e-05 -0 -0 1.32999e-05 -0 1.32999e-05)
(1.32996e-05 -0 -0 1.32996e-05 -0 1.32996e-05)
(1.32994e-05 -0 -0 1.32994e-05 -0 1.32994e-05)
(1.32993e-05 -0 -0 1.32993e-05 -0 1.32993e-05)
(1.32992e-05 -0 -0 1.32992e-05 -0 1.32992e-05)
(1.32991e-05 -0 -0 1.32991e-05 -0 1.32991e-05)
(1.37185e-05 -0 -0 1.37185e-05 -0 1.37185e-05)
(1.37185e-05 -0 -0 1.37185e-05 -0 1.37185e-05)
(1.37162e-05 -0 -0 1.37162e-05 -0 1.37162e-05)
(1.37154e-05 -0 -0 1.37154e-05 -0 1.37154e-05)
(1.37139e-05 -0 -0 1.37139e-05 -0 1.37139e-05)
(1.37131e-05 -0 -0 1.37131e-05 -0 1.37131e-05)
(1.37119e-05 -0 -0 1.37119e-05 -0 1.37119e-05)
(1.37111e-05 -0 -0 1.37111e-05 -0 1.37111e-05)
(1.37101e-05 -0 -0 1.37101e-05 -0 1.37101e-05)
(1.37095e-05 -0 -0 1.37095e-05 -0 1.37095e-05)
(1.37087e-05 -0 -0 1.37087e-05 -0 1.37087e-05)
(1.37081e-05 -0 -0 1.37081e-05 -0 1.37081e-05)
(1.37075e-05 -0 -0 1.37075e-05 -0 1.37075e-05)
(1.37071e-05 -0 -0 1.37071e-05 -0 1.37071e-05)
(1.37067e-05 -0 -0 1.37067e-05 -0 1.37067e-05)
(1.37064e-05 -0 -0 1.37064e-05 -0 1.37064e-05)
(1.37061e-05 -0 -0 1.37061e-05 -0 1.37061e-05)
(1.3706e-05 -0 -0 1.3706e-05 -0 1.3706e-05)
(1.37059e-05 -0 -0 1.37059e-05 -0 1.37059e-05)
(1.37059e-05 -0 -0 1.37059e-05 -0 1.37059e-05)
(1.3955e-05 -0 -0 1.3955e-05 -0 1.3955e-05)
(1.3955e-05 -0 -0 1.3955e-05 -0 1.3955e-05)
(1.39526e-05 -0 -0 1.39526e-05 -0 1.39526e-05)
(1.39518e-05 -0 -0 1.39518e-05 -0 1.39518e-05)
(1.39502e-05 -0 -0 1.39502e-05 -0 1.39502e-05)
(1.39494e-05 -0 -0 1.39494e-05 -0 1.39494e-05)
(1.39481e-05 -0 -0 1.39481e-05 -0 1.39481e-05)
(1.39473e-05 -0 -0 1.39473e-05 -0 1.39473e-05)
(1.39463e-05 -0 -0 1.39463e-05 -0 1.39463e-05)
(1.39456e-05 -0 -0 1.39456e-05 -0 1.39456e-05)
(1.39448e-05 -0 -0 1.39448e-05 -0 1.39448e-05)
(1.39443e-05 -0 -0 1.39443e-05 -0 1.39443e-05)
(1.39436e-05 -0 -0 1.39436e-05 -0 1.39436e-05)
(1.39432e-05 -0 -0 1.39432e-05 -0 1.39432e-05)
(1.39428e-05 -0 -0 1.39428e-05 -0 1.39428e-05)
(1.39425e-05 -0 -0 1.39425e-05 -0 1.39425e-05)
(1.39422e-05 -0 -0 1.39422e-05 -0 1.39422e-05)
(1.3942e-05 -0 -0 1.3942e-05 -0 1.3942e-05)
(1.3942e-05 -0 -0 1.3942e-05 -0 1.3942e-05)
(1.39419e-05 -0 -0 1.39419e-05 -0 1.39419e-05)
(1.40957e-05 -0 -0 1.40957e-05 -0 1.40957e-05)
(1.40957e-05 -0 -0 1.40957e-05 -0 1.40957e-05)
(1.40931e-05 -0 -0 1.40931e-05 -0 1.40931e-05)
(1.40924e-05 -0 -0 1.40924e-05 -0 1.40924e-05)
(1.40908e-05 -0 -0 1.40908e-05 -0 1.40908e-05)
(1.40899e-05 -0 -0 1.40899e-05 -0 1.40899e-05)
(1.40887e-05 -0 -0 1.40887e-05 -0 1.40887e-05)
(1.40878e-05 -0 -0 1.40878e-05 -0 1.40878e-05)
(1.40868e-05 -0 -0 1.40868e-05 -0 1.40868e-05)
(1.40861e-05 -0 -0 1.40861e-05 -0 1.40861e-05)
(1.40852e-05 -0 -0 1.40852e-05 -0 1.40852e-05)
(1.40847e-05 -0 -0 1.40847e-05 -0 1.40847e-05)
(1.4084e-05 -0 -0 1.4084e-05 -0 1.4084e-05)
(1.40836e-05 -0 -0 1.40836e-05 -0 1.40836e-05)
(1.40831e-05 -0 -0 1.40831e-05 -0 1.40831e-05)
(1.40828e-05 -0 -0 1.40828e-05 -0 1.40828e-05)
(1.40825e-05 -0 -0 1.40825e-05 -0 1.40825e-05)
(1.40824e-05 -0 -0 1.40824e-05 -0 1.40824e-05)
(1.40823e-05 -0 -0 1.40823e-05 -0 1.40823e-05)
(1.40823e-05 -0 -0 1.40823e-05 -0 1.40823e-05)
(1.41876e-05 -0 -0 1.41876e-05 -0 1.41876e-05)
(1.41876e-05 -0 -0 1.41876e-05 -0 1.41876e-05)
(1.41852e-05 -0 -0 1.41852e-05 -0 1.41852e-05)
(1.41842e-05 -0 -0 1.41842e-05 -0 1.41842e-05)
(1.41828e-05 -0 -0 1.41828e-05 -0 1.41828e-05)
(1.41817e-05 -0 -0 1.41817e-05 -0 1.41817e-05)
(1.41806e-05 -0 -0 1.41806e-05 -0 1.41806e-05)
(1.41796e-05 -0 -0 1.41796e-05 -0 1.41796e-05)
(1.41786e-05 -0 -0 1.41786e-05 -0 1.41786e-05)
(1.41779e-05 -0 -0 1.41779e-05 -0 1.41779e-05)
(1.4177e-05 -0 -0 1.4177e-05 -0 1.4177e-05)
(1.41765e-05 -0 -0 1.41765e-05 -0 1.41765e-05)
(1.41758e-05 -0 -0 1.41758e-05 -0 1.41758e-05)
(1.41754e-05 -0 -0 1.41754e-05 -0 1.41754e-05)
(1.41749e-05 -0 -0 1.41749e-05 -0 1.41749e-05)
(1.41746e-05 -0 -0 1.41746e-05 -0 1.41746e-05)
(1.41743e-05 -0 -0 1.41743e-05 -0 1.41743e-05)
(1.41742e-05 -0 -0 1.41742e-05 -0 1.41742e-05)
(1.41741e-05 -0 -0 1.41741e-05 -0 1.41741e-05)
(1.4174e-05 -0 -0 1.4174e-05 -0 1.4174e-05)
(1.42574e-05 -0 -0 1.42574e-05 -0 1.42574e-05)
(1.42573e-05 -0 -0 1.42573e-05 -0 1.42573e-05)
(1.4255e-05 -0 -0 1.4255e-05 -0 1.4255e-05)
(1.42539e-05 -0 -0 1.42539e-05 -0 1.42539e-05)
(1.42524e-05 -0 -0 1.42524e-05 -0 1.42524e-05)
(1.42515e-05 -0 -0 1.42515e-05 -0 1.42515e-05)
(1.42501e-05 -0 -0 1.42501e-05 -0 1.42501e-05)
(1.42493e-05 -0 -0 1.42493e-05 -0 1.42493e-05)
(1.42482e-05 -0 -0 1.42482e-05 -0 1.42482e-05)
(1.42475e-05 -0 -0 1.42475e-05 -0 1.42475e-05)
(1.42467e-05 -0 -0 1.42467e-05 -0 1.42467e-05)
(1.42461e-05 -0 -0 1.42461e-05 -0 1.42461e-05)
(1.42454e-05 -0 -0 1.42454e-05 -0 1.42454e-05)
(1.4245e-05 -0 -0 1.4245e-05 -0 1.4245e-05)
(1.42445e-05 -0 -0 1.42445e-05 -0 1.42445e-05)
(1.42442e-05 -0 -0 1.42442e-05 -0 1.42442e-05)
(1.42439e-05 -0 -0 1.42439e-05 -0 1.42439e-05)
(1.42438e-05 -0 -0 1.42438e-05 -0 1.42438e-05)
(1.42437e-05 -0 -0 1.42437e-05 -0 1.42437e-05)
(1.42436e-05 -0 -0 1.42436e-05 -0 1.42436e-05)
(1.43189e-05 -0 -0 1.43189e-05 -0 1.43189e-05)
(1.43188e-05 -0 -0 1.43188e-05 -0 1.43188e-05)
(1.43165e-05 -0 -0 1.43165e-05 -0 1.43165e-05)
(1.43155e-05 -0 -0 1.43155e-05 -0 1.43155e-05)
(1.43139e-05 -0 -0 1.43139e-05 -0 1.43139e-05)
(1.4313e-05 -0 -0 1.4313e-05 -0 1.4313e-05)
(1.43117e-05 -0 -0 1.43117e-05 -0 1.43117e-05)
(1.43108e-05 -0 -0 1.43108e-05 -0 1.43108e-05)
(1.43098e-05 -0 -0 1.43098e-05 -0 1.43098e-05)
(1.4309e-05 -0 -0 1.4309e-05 -0 1.4309e-05)
(1.43082e-05 -0 -0 1.43082e-05 -0 1.43082e-05)
(1.43076e-05 -0 -0 1.43076e-05 -0 1.43076e-05)
(1.43069e-05 -0 -0 1.43069e-05 -0 1.43069e-05)
(1.43065e-05 -0 -0 1.43065e-05 -0 1.43065e-05)
(1.43059e-05 -0 -0 1.43059e-05 -0 1.43059e-05)
(1.43057e-05 -0 -0 1.43057e-05 -0 1.43057e-05)
(1.43054e-05 -0 -0 1.43054e-05 -0 1.43054e-05)
(1.43052e-05 -0 -0 1.43052e-05 -0 1.43052e-05)
(1.43051e-05 -0 -0 1.43051e-05 -0 1.43051e-05)
(1.43051e-05 -0 -0 1.43051e-05 -0 1.43051e-05)
(1.438e-05 -0 -0 1.438e-05 -0 1.438e-05)
(1.43799e-05 -0 -0 1.43799e-05 -0 1.43799e-05)
(1.43775e-05 -0 -0 1.43775e-05 -0 1.43775e-05)
(1.43765e-05 -0 -0 1.43765e-05 -0 1.43765e-05)
(1.43749e-05 -0 -0 1.43749e-05 -0 1.43749e-05)
(1.4374e-05 -0 -0 1.4374e-05 -0 1.4374e-05)
(1.43726e-05 -0 -0 1.43726e-05 -0 1.43726e-05)
(1.43718e-05 -0 -0 1.43718e-05 -0 1.43718e-05)
(1.43707e-05 -0 -0 1.43707e-05 -0 1.43707e-05)
(1.437e-05 -0 -0 1.437e-05 -0 1.437e-05)
(1.4369e-05 -0 -0 1.4369e-05 -0 1.4369e-05)
(1.43686e-05 -0 -0 1.43686e-05 -0 1.43686e-05)
(1.43677e-05 -0 -0 1.43677e-05 -0 1.43677e-05)
(1.43675e-05 -0 -0 1.43675e-05 -0 1.43675e-05)
(1.43668e-05 -0 -0 1.43668e-05 -0 1.43668e-05)
(1.43666e-05 -0 -0 1.43666e-05 -0 1.43666e-05)
(1.43663e-05 -0 -0 1.43663e-05 -0 1.43663e-05)
(1.43662e-05 -0 -0 1.43662e-05 -0 1.43662e-05)
(1.4366e-05 -0 -0 1.4366e-05 -0 1.4366e-05)
(1.4366e-05 -0 -0 1.4366e-05 -0 1.4366e-05)
(1.44449e-05 -0 -0 1.44449e-05 -0 1.44449e-05)
(1.44448e-05 -0 -0 1.44448e-05 -0 1.44448e-05)
(1.44424e-05 -0 -0 1.44424e-05 -0 1.44424e-05)
(1.44414e-05 -0 -0 1.44414e-05 -0 1.44414e-05)
(1.44398e-05 -0 -0 1.44398e-05 -0 1.44398e-05)
(1.44388e-05 -0 -0 1.44388e-05 -0 1.44388e-05)
(1.44375e-05 -0 -0 1.44375e-05 -0 1.44375e-05)
(1.44366e-05 -0 -0 1.44366e-05 -0 1.44366e-05)
(1.44355e-05 -0 -0 1.44355e-05 -0 1.44355e-05)
(1.44348e-05 -0 -0 1.44348e-05 -0 1.44348e-05)
(1.44339e-05 -0 -0 1.44339e-05 -0 1.44339e-05)
(1.44333e-05 -0 -0 1.44333e-05 -0 1.44333e-05)
(1.44326e-05 -0 -0 1.44326e-05 -0 1.44326e-05)
(1.44322e-05 -0 -0 1.44322e-05 -0 1.44322e-05)
(1.44317e-05 -0 -0 1.44317e-05 -0 1.44317e-05)
(1.44314e-05 -0 -0 1.44314e-05 -0 1.44314e-05)
(1.44311e-05 -0 -0 1.44311e-05 -0 1.44311e-05)
(1.44309e-05 -0 -0 1.44309e-05 -0 1.44309e-05)
(1.44308e-05 -0 -0 1.44308e-05 -0 1.44308e-05)
(1.44308e-05 -0 -0 1.44308e-05 -0 1.44308e-05)
(1.45168e-05 -0 -0 1.45168e-05 -0 1.45168e-05)
(1.45168e-05 -0 -0 1.45168e-05 -0 1.45168e-05)
(1.45142e-05 -0 -0 1.45142e-05 -0 1.45142e-05)
(1.45132e-05 -0 -0 1.45132e-05 -0 1.45132e-05)
(1.45117e-05 -0 -0 1.45117e-05 -0 1.45117e-05)
(1.45105e-05 -0 -0 1.45105e-05 -0 1.45105e-05)
(1.45094e-05 -0 -0 1.45094e-05 -0 1.45094e-05)
(1.45083e-05 -0 -0 1.45083e-05 -0 1.45083e-05)
(1.45073e-05 -0 -0 1.45073e-05 -0 1.45073e-05)
(1.45065e-05 -0 -0 1.45065e-05 -0 1.45065e-05)
(1.45057e-05 -0 -0 1.45057e-05 -0 1.45057e-05)
(1.45051e-05 -0 -0 1.45051e-05 -0 1.45051e-05)
(1.45044e-05 -0 -0 1.45044e-05 -0 1.45044e-05)
(1.45039e-05 -0 -0 1.45039e-05 -0 1.45039e-05)
(1.45034e-05 -0 -0 1.45034e-05 -0 1.45034e-05)
(1.45031e-05 -0 -0 1.45031e-05 -0 1.45031e-05)
(1.45028e-05 -0 -0 1.45028e-05 -0 1.45028e-05)
(1.45027e-05 -0 -0 1.45027e-05 -0 1.45027e-05)
(1.45026e-05 -0 -0 1.45026e-05 -0 1.45026e-05)
(1.45025e-05 -0 -0 1.45025e-05 -0 1.45025e-05)
(1.45981e-05 -0 -0 1.45981e-05 -0 1.45981e-05)
(1.45981e-05 -0 -0 1.45981e-05 -0 1.45981e-05)
(1.45953e-05 -0 -0 1.45953e-05 -0 1.45953e-05)
(1.45945e-05 -0 -0 1.45945e-05 -0 1.45945e-05)
(1.45928e-05 -0 -0 1.45928e-05 -0 1.45928e-05)
(1.45918e-05 -0 -0 1.45918e-05 -0 1.45918e-05)
(1.45905e-05 -0 -0 1.45905e-05 -0 1.45905e-05)
(1.45896e-05 -0 -0 1.45896e-05 -0 1.45896e-05)
(1.45885e-05 -0 -0 1.45885e-05 -0 1.45885e-05)
(1.45877e-05 -0 -0 1.45877e-05 -0 1.45877e-05)
(1.45868e-05 -0 -0 1.45868e-05 -0 1.45868e-05)
(1.45862e-05 -0 -0 1.45862e-05 -0 1.45862e-05)
(1.45855e-05 -0 -0 1.45855e-05 -0 1.45855e-05)
(1.45851e-05 -0 -0 1.45851e-05 -0 1.45851e-05)
(1.45845e-05 -0 -0 1.45845e-05 -0 1.45845e-05)
(1.45843e-05 -0 -0 1.45843e-05 -0 1.45843e-05)
(1.4584e-05 -0 -0 1.4584e-05 -0 1.4584e-05)
(1.45838e-05 -0 -0 1.45838e-05 -0 1.45838e-05)
(1.45837e-05 -0 -0 1.45837e-05 -0 1.45837e-05)
(1.45836e-05 -0 -0 1.45836e-05 -0 1.45836e-05)
(1.46904e-05 -0 -0 1.46904e-05 -0 1.46904e-05)
(1.46903e-05 -0 -0 1.46903e-05 -0 1.46903e-05)
(1.46877e-05 -0 -0 1.46877e-05 -0 1.46877e-05)
(1.46867e-05 -0 -0 1.46867e-05 -0 1.46867e-05)
(1.46852e-05 -0 -0 1.46852e-05 -0 1.46852e-05)
(1.4684e-05 -0 -0 1.4684e-05 -0 1.4684e-05)
(1.46828e-05 -0 -0 1.46828e-05 -0 1.46828e-05)
(1.46817e-05 -0 -0 1.46817e-05 -0 1.46817e-05)
(1.46807e-05 -0 -0 1.46807e-05 -0 1.46807e-05)
(1.46799e-05 -0 -0 1.46799e-05 -0 1.46799e-05)
(1.4679e-05 -0 -0 1.4679e-05 -0 1.4679e-05)
(1.46784e-05 -0 -0 1.46784e-05 -0 1.46784e-05)
(1.46777e-05 -0 -0 1.46777e-05 -0 1.46777e-05)
(1.46772e-05 -0 -0 1.46772e-05 -0 1.46772e-05)
(1.46767e-05 -0 -0 1.46767e-05 -0 1.46767e-05)
(1.46764e-05 -0 -0 1.46764e-05 -0 1.46764e-05)
(1.46761e-05 -0 -0 1.46761e-05 -0 1.46761e-05)
(1.46759e-05 -0 -0 1.46759e-05 -0 1.46759e-05)
(1.46758e-05 -0 -0 1.46758e-05 -0 1.46758e-05)
(1.46758e-05 -0 -0 1.46758e-05 -0 1.46758e-05)
(1.47926e-05 -0 -0 1.47926e-05 -0 1.47926e-05)
(1.47925e-05 -0 -0 1.47925e-05 -0 1.47925e-05)
(1.47899e-05 -0 -0 1.47899e-05 -0 1.47899e-05)
(1.47889e-05 -0 -0 1.47889e-05 -0 1.47889e-05)
(1.47872e-05 -0 -0 1.47872e-05 -0 1.47872e-05)
(1.47863e-05 -0 -0 1.47863e-05 -0 1.47863e-05)
(1.47847e-05 -0 -0 1.47847e-05 -0 1.47847e-05)
(1.4784e-05 -0 -0 1.4784e-05 -0 1.4784e-05)
(1.47827e-05 -0 -0 1.47827e-05 -0 1.47827e-05)
(1.47821e-05 -0 -0 1.47821e-05 -0 1.47821e-05)
(1.4781e-05 -0 -0 1.4781e-05 -0 1.4781e-05)
(1.47805e-05 -0 -0 1.47805e-05 -0 1.47805e-05)
(1.47797e-05 -0 -0 1.47797e-05 -0 1.47797e-05)
(1.47793e-05 -0 -0 1.47793e-05 -0 1.47793e-05)
(1.47787e-05 -0 -0 1.47787e-05 -0 1.47787e-05)
(1.47784e-05 -0 -0 1.47784e-05 -0 1.47784e-05)
(1.47781e-05 -0 -0 1.47781e-05 -0 1.47781e-05)
(1.4778e-05 -0 -0 1.4778e-05 -0 1.4778e-05)
(1.47778e-05 -0 -0 1.47778e-05 -0 1.47778e-05)
(1.47778e-05 -0 -0 1.47778e-05 -0 1.47778e-05)
(1.48972e-05 -0 -0 1.48972e-05 -0 1.48972e-05)
(1.48972e-05 -0 -0 1.48972e-05 -0 1.48972e-05)
(1.48946e-05 -0 -0 1.48946e-05 -0 1.48946e-05)
(1.48935e-05 -0 -0 1.48935e-05 -0 1.48935e-05)
(1.48919e-05 -0 -0 1.48919e-05 -0 1.48919e-05)
(1.48907e-05 -0 -0 1.48907e-05 -0 1.48907e-05)
(1.48895e-05 -0 -0 1.48895e-05 -0 1.48895e-05)
(1.48884e-05 -0 -0 1.48884e-05 -0 1.48884e-05)
(1.48873e-05 -0 -0 1.48873e-05 -0 1.48873e-05)
(1.48865e-05 -0 -0 1.48865e-05 -0 1.48865e-05)
(1.48856e-05 -0 -0 1.48856e-05 -0 1.48856e-05)
(1.48849e-05 -0 -0 1.48849e-05 -0 1.48849e-05)
(1.48842e-05 -0 -0 1.48842e-05 -0 1.48842e-05)
(1.48837e-05 -0 -0 1.48837e-05 -0 1.48837e-05)
(1.48832e-05 -0 -0 1.48832e-05 -0 1.48832e-05)
(1.48829e-05 -0 -0 1.48829e-05 -0 1.48829e-05)
(1.48826e-05 -0 -0 1.48826e-05 -0 1.48826e-05)
(1.48824e-05 -0 -0 1.48824e-05 -0 1.48824e-05)
(1.48823e-05 -0 -0 1.48823e-05 -0 1.48823e-05)
(1.48823e-05 -0 -0 1.48823e-05 -0 1.48823e-05)
(1.49871e-05 -0 -0 1.49871e-05 -0 1.49871e-05)
(1.49871e-05 -0 -0 1.49871e-05 -0 1.49871e-05)
(1.49846e-05 -0 -0 1.49846e-05 -0 1.49846e-05)
(1.49836e-05 -0 -0 1.49836e-05 -0 1.49836e-05)
(1.49819e-05 -0 -0 1.49819e-05 -0 1.49819e-05)
(1.49809e-05 -0 -0 1.49809e-05 -0 1.49809e-05)
(1.49796e-05 -0 -0 1.49796e-05 -0 1.49796e-05)
(1.49786e-05 -0 -0 1.49786e-05 -0 1.49786e-05)
(1.49775e-05 -0 -0 1.49775e-05 -0 1.49775e-05)
(1.49767e-05 -0 -0 1.49767e-05 -0 1.49767e-05)
(1.49758e-05 -0 -0 1.49758e-05 -0 1.49758e-05)
(1.49752e-05 -0 -0 1.49752e-05 -0 1.49752e-05)
(1.49744e-05 -0 -0 1.49744e-05 -0 1.49744e-05)
(1.4974e-05 -0 -0 1.4974e-05 -0 1.4974e-05)
(1.49734e-05 -0 -0 1.49734e-05 -0 1.49734e-05)
(1.49731e-05 -0 -0 1.49731e-05 -0 1.49731e-05)
(1.49728e-05 -0 -0 1.49728e-05 -0 1.49728e-05)
(1.49726e-05 -0 -0 1.49726e-05 -0 1.49726e-05)
(1.49725e-05 -0 -0 1.49725e-05 -0 1.49725e-05)
(1.49725e-05 -0 -0 1.49725e-05 -0 1.49725e-05)
(1.50262e-05 -0 -0 1.50262e-05 -0 1.50262e-05)
(1.50262e-05 -0 -0 1.50262e-05 -0 1.50262e-05)
(1.50261e-05 -0 -0 1.50261e-05 -0 1.50261e-05)
(1.50261e-05 -0 -0 1.50261e-05 -0 1.50261e-05)
(1.50261e-05 -0 -0 1.50261e-05 -0 1.50261e-05)
(1.50261e-05 -0 -0 1.50261e-05 -0 1.50261e-05)
(1.5026e-05 -0 -0 1.5026e-05 -0 1.5026e-05)
(1.50261e-05 -0 -0 1.50261e-05 -0 1.50261e-05)
(1.5026e-05 -0 -0 1.5026e-05 -0 1.5026e-05)
(1.5026e-05 -0 -0 1.5026e-05 -0 1.5026e-05)
(1.5026e-05 -0 -0 1.5026e-05 -0 1.5026e-05)
(1.5026e-05 -0 -0 1.5026e-05 -0 1.5026e-05)
(1.5026e-05 -0 -0 1.5026e-05 -0 1.5026e-05)
(1.5026e-05 -0 -0 1.5026e-05 -0 1.5026e-05)
(1.5026e-05 -0 -0 1.5026e-05 -0 1.5026e-05)
(1.5026e-05 -0 -0 1.5026e-05 -0 1.5026e-05)
(1.5026e-05 -0 -0 1.5026e-05 -0 1.5026e-05)
(1.5026e-05 -0 -0 1.5026e-05 -0 1.5026e-05)
(1.5026e-05 -0 -0 1.5026e-05 -0 1.5026e-05)
(1.5026e-05 -0 -0 1.5026e-05 -0 1.5026e-05)
)
;

boundaryField
{
    movingWall
    {
        type            kqRWallFunction;
        value           nonuniform List<symmTensor> 
20
(
(1.50262e-05 -0 -0 1.50262e-05 -0 1.50262e-05)
(1.50262e-05 -0 -0 1.50262e-05 -0 1.50262e-05)
(1.50261e-05 -0 -0 1.50261e-05 -0 1.50261e-05)
(1.50261e-05 -0 -0 1.50261e-05 -0 1.50261e-05)
(1.50261e-05 -0 -0 1.50261e-05 -0 1.50261e-05)
(1.50261e-05 -0 -0 1.50261e-05 -0 1.50261e-05)
(1.5026e-05 -0 -0 1.5026e-05 -0 1.5026e-05)
(1.50261e-05 -0 -0 1.50261e-05 -0 1.50261e-05)
(1.5026e-05 -0 -0 1.5026e-05 -0 1.5026e-05)
(1.5026e-05 -0 -0 1.5026e-05 -0 1.5026e-05)
(1.5026e-05 -0 -0 1.5026e-05 -0 1.5026e-05)
(1.5026e-05 -0 -0 1.5026e-05 -0 1.5026e-05)
(1.5026e-05 -0 -0 1.5026e-05 -0 1.5026e-05)
(1.5026e-05 -0 -0 1.5026e-05 -0 1.5026e-05)
(1.5026e-05 -0 -0 1.5026e-05 -0 1.5026e-05)
(1.5026e-05 -0 -0 1.5026e-05 -0 1.5026e-05)
(1.5026e-05 -0 -0 1.5026e-05 -0 1.5026e-05)
(1.5026e-05 -0 -0 1.5026e-05 -0 1.5026e-05)
(1.5026e-05 -0 -0 1.5026e-05 -0 1.5026e-05)
(1.5026e-05 -0 -0 1.5026e-05 -0 1.5026e-05)
)
;
    }
    fixedWalls
    {
        type            kqRWallFunction;
        value           nonuniform List<symmTensor> 
60
(
(9.57997e-06 -0 -0 9.57997e-06 -0 9.57997e-06)
(1.04688e-05 -0 -0 1.04688e-05 -0 1.04688e-05)
(1.16463e-05 -0 -0 1.16463e-05 -0 1.16463e-05)
(1.26383e-05 -0 -0 1.26383e-05 -0 1.26383e-05)
(1.3311e-05 -0 -0 1.3311e-05 -0 1.3311e-05)
(1.37185e-05 -0 -0 1.37185e-05 -0 1.37185e-05)
(1.3955e-05 -0 -0 1.3955e-05 -0 1.3955e-05)
(1.40957e-05 -0 -0 1.40957e-05 -0 1.40957e-05)
(1.41876e-05 -0 -0 1.41876e-05 -0 1.41876e-05)
(1.42574e-05 -0 -0 1.42574e-05 -0 1.42574e-05)
(1.43189e-05 -0 -0 1.43189e-05 -0 1.43189e-05)
(1.438e-05 -0 -0 1.438e-05 -0 1.438e-05)
(1.44449e-05 -0 -0 1.44449e-05 -0 1.44449e-05)
(1.45168e-05 -0 -0 1.45168e-05 -0 1.45168e-05)
(1.45981e-05 -0 -0 1.45981e-05 -0 1.45981e-05)
(1.46904e-05 -0 -0 1.46904e-05 -0 1.46904e-05)
(1.47926e-05 -0 -0 1.47926e-05 -0 1.47926e-05)
(1.48972e-05 -0 -0 1.48972e-05 -0 1.48972e-05)
(1.49871e-05 -0 -0 1.49871e-05 -0 1.49871e-05)
(1.50262e-05 -0 -0 1.50262e-05 -0 1.50262e-05)
(9.57982e-06 -0 -0 9.57982e-06 -0 9.57982e-06)
(1.04616e-05 -0 -0 1.04616e-05 -0 1.04616e-05)
(1.16372e-05 -0 -0 1.16372e-05 -0 1.16372e-05)
(1.26277e-05 -0 -0 1.26277e-05 -0 1.26277e-05)
(1.32991e-05 -0 -0 1.32991e-05 -0 1.32991e-05)
(1.37059e-05 -0 -0 1.37059e-05 -0 1.37059e-05)
(1.39419e-05 -0 -0 1.39419e-05 -0 1.39419e-05)
(1.40823e-05 -0 -0 1.40823e-05 -0 1.40823e-05)
(1.4174e-05 -0 -0 1.4174e-05 -0 1.4174e-05)
(1.42436e-05 -0 -0 1.42436e-05 -0 1.42436e-05)
(1.43051e-05 -0 -0 1.43051e-05 -0 1.43051e-05)
(1.4366e-05 -0 -0 1.4366e-05 -0 1.4366e-05)
(1.44308e-05 -0 -0 1.44308e-05 -0 1.44308e-05)
(1.45025e-05 -0 -0 1.45025e-05 -0 1.45025e-05)
(1.45836e-05 -0 -0 1.45836e-05 -0 1.45836e-05)
(1.46758e-05 -0 -0 1.46758e-05 -0 1.46758e-05)
(1.47778e-05 -0 -0 1.47778e-05 -0 1.47778e-05)
(1.48823e-05 -0 -0 1.48823e-05 -0 1.48823e-05)
(1.49725e-05 -0 -0 1.49725e-05 -0 1.49725e-05)
(1.5026e-05 -0 -0 1.5026e-05 -0 1.5026e-05)
(9.57997e-06 -0 -0 9.57997e-06 -0 9.57997e-06)
(9.57998e-06 -0 -0 9.57998e-06 -0 9.57998e-06)
(9.57989e-06 -0 -0 9.57989e-06 -0 9.57989e-06)
(9.57997e-06 -0 -0 9.57997e-06 -0 9.57997e-06)
(9.57985e-06 -0 -0 9.57985e-06 -0 9.57985e-06)
(9.57994e-06 -0 -0 9.57994e-06 -0 9.57994e-06)
(9.57983e-06 -0 -0 9.57983e-06 -0 9.57983e-06)
(9.57989e-06 -0 -0 9.57989e-06 -0 9.57989e-06)
(9.57984e-06 -0 -0 9.57984e-06 -0 9.57984e-06)
(9.57985e-06 -0 -0 9.57985e-06 -0 9.57985e-06)
(9.57984e-06 -0 -0 9.57984e-06 -0 9.57984e-06)
(9.57983e-06 -0 -0 9.57983e-06 -0 9.57983e-06)
(9.57983e-06 -0 -0 9.57983e-06 -0 9.57983e-06)
(9.57982e-06 -0 -0 9.57982e-06 -0 9.57982e-06)
(9.57982e-06 -0 -0 9.57982e-06 -0 9.57982e-06)
(9.57982e-06 -0 -0 9.57982e-06 -0 9.57982e-06)
(9.57982e-06 -0 -0 9.57982e-06 -0 9.57982e-06)
(9.57982e-06 -0 -0 9.57982e-06 -0 9.57982e-06)
(9.57982e-06 -0 -0 9.57982e-06 -0 9.57982e-06)
(9.57982e-06 -0 -0 9.57982e-06 -0 9.57982e-06)
)
;
    }
    frontAndBack
    {
        type            empty;
    }
}


// ************************************************************************* //
