/*--------------------------------*- C++ -*----------------------------------*\
| =========                 |                                                 |
| \\      /  F ield         | OpenFOAM: The Open Source CFD Toolbox           |
|  \\    /   O peration     | Version:  2506                                  |
|   \\  /    A nd           | Website:  www.openfoam.com                      |
|    \\/     M anipulation  |                                                 |
\*---------------------------------------------------------------------------*/
FoamFile
{
    version     2.0;
    format      ascii;
    arch        "LSB;label=32;scalar=64";
    class       volScalarField;
    location    "5";
    object      turbulenceProperties:I;
}
// * * * * * * * * * * * * * * * * * * * * * * * * * * * * * * * * * * * * * //

dimensions      [0 0 0 0 0 0 0];

internalField   nonuniform List<scalar> 
400
(
0.00309515
0.00309515
0.00309514
0.00309515
0.00309513
0.00309515
0.00309513
0.00309514
0.00309513
0.00309513
0.00309513
0.00309513
0.00309513
0.00309513
0.00309513
0.00309513
0.00309513
0.00309513
0.00309513
0.00309513
0.00323555
0.00323555
0.00323536
0.00323528
0.00323515
0.00323508
0.00323497
0.0032349
0.00323482
0.00323476
0.00323469
0.00323464
0.00323458
0.00323455
0.00323451
0.00323448
0.00323446
0.00323445
0.00323444
0.00323444
0.00341266
0.00341266
0.00341243
0.00341234
0.00341218
0.0034121
0.00341197
0.00341189
0.00341179
0.00341172
0.00341163
0.00341158
0.00341151
0.00341147
0.00341143
0.0034114
0.00341137
0.00341136
0.00341135
0.00341134
0.00355504
0.00355504
0.00355477
0.00355467
0.0035545
0.0035544
0.00355425
0.00355416
0.00355405
0.00355397
0.00355387
0.00355381
0.00355374
0.00355369
0.00355364
0.00355361
0.00355358
0.00355356
0.00355355
0.00355354
0.00364842
0.00364842
0.00364813
0.00364802
0.00364784
0.00364772
0.00364757
0.00364747
0.00364734
0.00364726
0.00364716
0.00364709
0.00364701
0.00364695
0.0036469
0.00364687
0.00364683
0.00364681
0.0036468
0.0036468
0.00370385
0.00370385
0.00370354
0.00370343
0.00370323
0.00370312
0.00370295
0.00370285
0.00370272
0.00370263
0.00370252
0.00370245
0.00370237
0.00370231
0.00370225
0.00370221
0.00370218
0.00370216
0.00370215
0.00370214
0.00373564
0.00373564
0.00373532
0.00373521
0.003735
0.00373488
0.00373472
0.00373461
0.00373448
0.00373439
0.00373428
0.0037342
0.00373412
0.00373406
0.003734
0.00373396
0.00373393
0.00373391
0.00373389
0.00373389
0.00375442
0.00375443
0.00375408
0.00375398
0.00375377
0.00375365
0.00375349
0.00375337
0.00375324
0.00375314
0.00375303
0.00375296
0.00375286
0.00375281
0.00375274
0.00375271
0.00375267
0.00375265
0.00375264
0.00375263
0.00376665
0.00376664
0.00376632
0.00376619
0.003766
0.00376586
0.00376571
0.00376558
0.00376545
0.00376535
0.00376524
0.00376516
0.00376508
0.00376502
0.00376496
0.00376492
0.00376488
0.00376486
0.00376485
0.00376484
0.00377589
0.00377588
0.00377557
0.00377544
0.00377523
0.00377511
0.00377493
0.00377483
0.00377468
0.00377459
0.00377447
0.0037744
0.00377431
0.00377425
0.00377419
0.00377415
0.00377411
0.00377409
0.00377408
0.00377407
0.00378404
0.00378402
0.00378372
0.00378358
0.00378337
0.00378325
0.00378308
0.00378296
0.00378283
0.00378273
0.00378261
0.00378254
0.00378244
0.00378239
0.00378232
0.00378229
0.00378224
0.00378223
0.00378221
0.00378221
0.00379209
0.00379208
0.00379177
0.00379164
0.00379143
0.0037913
0.00379112
0.00379102
0.00379087
0.00379078
0.00379065
0.00379059
0.00379047
0.00379044
0.00379036
0.00379033
0.00379028
0.00379027
0.00379026
0.00379025
0.00380064
0.00380063
0.00380031
0.00380018
0.00379997
0.00379984
0.00379967
0.00379955
0.00379941
0.00379932
0.0037992
0.00379912
0.00379903
0.00379897
0.00379891
0.00379887
0.00379883
0.00379881
0.00379879
0.00379879
0.00381009
0.00381009
0.00380975
0.00380962
0.00380943
0.00380927
0.00380912
0.00380898
0.00380885
0.00380874
0.00380863
0.00380855
0.00380846
0.0038084
0.00380834
0.0038083
0.00380826
0.00380824
0.00380822
0.00380822
0.00382074
0.00382075
0.00382038
0.00382028
0.00382006
0.00381992
0.00381976
0.00381963
0.00381949
0.00381939
0.00381927
0.00381919
0.0038191
0.00381904
0.00381897
0.00381893
0.00381889
0.00381887
0.00381886
0.00381885
0.0038328
0.00383279
0.00383246
0.00383232
0.00383213
0.00383197
0.00383182
0.00383167
0.00383154
0.00383143
0.00383132
0.00383124
0.00383115
0.00383108
0.00383102
0.00383098
0.00383094
0.00383092
0.0038309
0.0038309
0.00384611
0.0038461
0.00384577
0.00384564
0.00384541
0.00384529
0.00384509
0.00384499
0.00384482
0.00384475
0.0038446
0.00384454
0.00384443
0.00384438
0.00384431
0.00384427
0.00384423
0.00384421
0.0038442
0.00384419
0.0038597
0.00385969
0.00385935
0.00385921
0.003859
0.00385885
0.00385869
0.00385855
0.00385841
0.0038583
0.00385818
0.0038581
0.00385801
0.00385794
0.00385788
0.00385783
0.0038578
0.00385777
0.00385776
0.00385775
0.00387132
0.00387132
0.003871
0.00387086
0.00387065
0.00387052
0.00387034
0.00387022
0.00387008
0.00386997
0.00386985
0.00386977
0.00386967
0.00386962
0.00386955
0.00386951
0.00386947
0.00386945
0.00386943
0.00386943
0.00387637
0.00387636
0.00387636
0.00387636
0.00387635
0.00387635
0.00387634
0.00387635
0.00387634
0.00387634
0.00387634
0.00387634
0.00387634
0.00387634
0.00387634
0.00387634
0.00387634
0.00387634
0.00387634
0.00387634
)
;

boundaryField
{
    movingWall
    {
        type            calculated;
        value           nonuniform List<scalar> 
20
(
0.00387637
0.00387636
0.00387636
0.00387636
0.00387635
0.00387635
0.00387634
0.00387635
0.00387634
0.00387634
0.00387634
0.00387634
0.00387634
0.00387634
0.00387634
0.00387634
0.00387634
0.00387634
0.00387634
0.00387634
)
;
    }
    fixedWalls
    {
        type            calculated;
        value           nonuniform List<scalar> 
60
(
0.00309515
0.00323555
0.00341266
0.00355504
0.00364842
0.00370385
0.00373564
0.00375442
0.00376665
0.00377589
0.00378404
0.00379209
0.00380064
0.00381009
0.00382074
0.0038328
0.00384611
0.0038597
0.00387132
0.00387637
0.00309513
0.00323444
0.00341134
0.00355354
0.0036468
0.00370214
0.00373389
0.00375263
0.00376484
0.00377407
0.00378221
0.00379025
0.00379879
0.00380822
0.00381885
0.0038309
0.00384419
0.00385775
0.00386943
0.00387634
0.00309515
0.00309515
0.00309514
0.00309515
0.00309513
0.00309515
0.00309513
0.00309514
0.00309513
0.00309513
0.00309513
0.00309513
0.00309513
0.00309513
0.00309513
0.00309513
0.00309513
0.00309513
0.00309513
0.00309513
)
;
    }
    frontAndBack
    {
        type            empty;
    }
}


// ************************************************************************* //
