/*--------------------------------*- C++ -*----------------------------------*\
| =========                 |                                                 |
| \\      /  F ield         | OpenFOAM: The Open Source CFD Toolbox           |
|  \\    /   O peration     | Version:  2506                                  |
|   \\  /    A nd           | Website:  www.openfoam.com                      |
|    \\/     M anipulation  |                                                 |
\*---------------------------------------------------------------------------*/
FoamFile
{
    version     2.0;
    format      ascii;
    arch        "LSB;label=32;scalar=64";
    class       volTensorField;
    location    "5";
    object      U2;
}
// * * * * * * * * * * * * * * * * * * * * * * * * * * * * * * * * * * * * * //

dimensions      [0 2 -2 0 0 0 0];

internalField   nonuniform List<tensor> 
400
(
(1 -2.99104e-09 -0 -2.94669e-09 8.81366e-18 0 -0 0 0)
(1 7.09738e-10 -0 6.9921e-10 4.96256e-19 -0 -0 -0 0)
(1 -1.68728e-10 -0 -1.66225e-10 2.80468e-20 0 -0 0 0)
(1 3.99997e-11 -0 3.9406e-11 1.57623e-21 -0 -0 -0 0)
(1 -9.53338e-12 -0 -9.39196e-12 8.95371e-23 0 -0 0 0)
(1 2.25183e-12 -0 2.2184e-12 4.99546e-24 -0 -0 -0 0)
(1 -5.42431e-13 -0 -5.34384e-13 2.89866e-25 0 -0 0 0)
(1 1.24959e-13 -0 1.23113e-13 1.53841e-26 -0 -0 -0 0)
(1 -3.21938e-14 -0 -3.17571e-14 1.02238e-27 0 -0 0 0)
(1 5.94911e-15 -0 5.81248e-15 3.45791e-29 -0 -0 -0 0)
(1 -2.62602e-15 -0 -2.64777e-15 6.9531e-30 0 -0 0 0)
(1 -2.79695e-16 -0 -2.46887e-16 6.9053e-32 0 -0 0 0)
(1 -5.85731e-16 -0 -5.28338e-16 3.09464e-31 0 -0 0 0)
(1 -2.99722e-16 -0 -2.89025e-16 8.66274e-32 0 -0 0 0)
(1 -2.50328e-16 -0 -2.75944e-16 6.90765e-32 0 -0 0 0)
(1 -2.4832e-16 -0 -2.37794e-16 5.90488e-32 0 -0 0 0)
(1 -1.8382e-16 -0 -1.67104e-16 3.0717e-32 0 -0 0 0)
(1 -1.0588e-16 -0 -1.08648e-16 1.15037e-32 0 -0 0 0)
(1 -8.05241e-17 -0 -6.45398e-17 5.19702e-33 0 -0 0 0)
(1 -4.67284e-17 -0 -7.2241e-17 3.37571e-33 0 -0 0 0)
(1 2.99591e-09 -0 2.95153e-09 8.84251e-18 -0 -0 -0 0)
(1 -7.12116e-10 -0 -7.0157e-10 4.99599e-19 0 -0 0 0)
(1 1.68744e-10 -0 1.66244e-10 2.80527e-20 -0 -0 -0 0)
(1 -4.01824e-11 -0 -3.95876e-11 1.59073e-21 0 -0 0 0)
(1 9.47323e-12 -0 9.3328e-12 8.84117e-23 -0 -0 -0 0)
(1 -2.27969e-12 -0 -2.24595e-12 5.12007e-24 0 -0 0 0)
(1 5.22362e-13 -0 5.14541e-13 2.68777e-25 -0 -0 -0 0)
(1 -1.34847e-13 -0 -1.32944e-13 1.79271e-26 0 -0 0 0)
(1 2.48191e-14 -0 2.44384e-14 6.06539e-28 -0 -0 -0 0)
(1 -1.07514e-14 -0 -1.05777e-14 1.13726e-28 0 -0 0 0)
(1 -7.69133e-16 -0 -8.38021e-16 6.44549e-31 0 -0 0 0)
(1 -2.19239e-15 -0 -2.15449e-15 4.72347e-30 0 -0 0 0)
(1 -1.24327e-15 -0 -1.11283e-15 1.38355e-30 0 -0 0 0)
(1 -8.97139e-16 -0 -8.06308e-16 7.2337e-31 0 -0 0 0)
(1 -5.26242e-16 -0 -5.47455e-16 2.88094e-31 0 -0 0 0)
(1 -4.84726e-16 -0 -5.40525e-16 2.62006e-31 0 -0 0 0)
(1 -4.56514e-16 -0 -4.40629e-16 2.01153e-31 0 -0 0 0)
(1 -2.50471e-16 -0 -2.35666e-16 5.90274e-32 0 -0 0 0)
(1 -6.63e-17 -0 -1.22598e-16 8.12827e-33 0 -0 0 0)
(1 -5.60504e-17 -0 -8.63522e-17 4.84007e-33 0 -0 0 0)
(1 -2.99573e-09 -0 -2.95142e-09 8.84165e-18 0 -0 0 0)
(1 7.11535e-10 -0 7.01012e-10 4.98795e-19 -0 -0 -0 0)
(1 -1.68989e-10 -0 -1.6649e-10 2.81349e-20 0 -0 0 0)
(1 4.00503e-11 -0 3.94579e-11 1.5803e-21 -0 -0 -0 0)
(1 -9.56722e-12 -0 -9.42603e-12 9.0181e-23 0 -0 0 0)
(1 2.23638e-12 -0 2.20317e-12 4.92712e-24 -0 -0 -0 0)
(1 -5.53972e-13 -0 -5.45899e-13 3.02413e-25 0 -0 0 0)
(1 1.16722e-13 -0 1.14855e-13 1.34061e-26 -0 -0 -0 0)
(1 -3.79731e-14 -0 -3.74149e-14 1.42076e-27 0 -0 0 0)
(1 1.92545e-15 -0 1.9778e-15 3.80816e-30 -0 -0 -0 0)
(1 -5.39817e-15 -0 -5.28308e-15 2.8519e-29 0 -0 0 0)
(1 -2.1949e-15 -0 -2.16938e-15 4.76158e-30 0 -0 0 0)
(1 -2.04373e-15 -0 -1.90948e-15 3.90246e-30 0 -0 0 0)
(1 -1.33198e-15 -0 -1.20211e-15 1.60118e-30 0 -0 0 0)
(1 -8.75742e-16 -0 -8.70769e-16 7.62569e-31 0 -0 0 0)
(1 -5.95847e-16 -0 -7.04295e-16 4.19652e-31 0 -0 0 0)
(1 -4.83665e-16 -0 -5.34102e-16 2.58327e-31 0 -0 0 0)
(1 -3.00487e-16 -0 -3.32831e-16 1.00011e-31 0 -0 0 0)
(1 -7.79509e-17 -0 -1.6543e-16 1.28954e-32 0 -0 0 0)
(1 -5.5133e-17 -0 -4.3779e-17 2.41367e-33 0 -0 0 0)
(1 2.99419e-09 -0 2.95e-09 8.83287e-18 -0 -0 -0 0)
(1 -7.10787e-10 -0 -7.00302e-10 4.97766e-19 0 -0 0 0)
(1 1.68642e-10 -0 1.66154e-10 2.80207e-20 -0 -0 -0 0)
(1 -4.0066e-11 -0 -3.94753e-11 1.58162e-21 0 -0 0 0)
(1 9.47297e-12 -0 9.33314e-12 8.84126e-23 -0 -0 -0 0)
(1 -2.27683e-12 -0 -2.24342e-12 5.10788e-24 0 -0 0 0)
(1 5.19301e-13 -0 5.11565e-13 2.65656e-25 -0 -0 -0 0)
(1 -1.38388e-13 -0 -1.36443e-13 1.88821e-26 0 -0 0 0)
(1 2.19507e-14 -0 2.15548e-14 4.73143e-28 -0 -0 -0 0)
(1 -1.30892e-14 -0 -1.29331e-14 1.69285e-28 0 -0 0 0)
(1 -2.66431e-15 -0 -2.61795e-15 6.97501e-30 0 -0 0 0)
(1 -3.59299e-15 -0 -3.47121e-15 1.2472e-29 0 -0 0 0)
(1 -2.17248e-15 -0 -2.08554e-15 4.53078e-30 0 -0 0 0)
(1 -1.66561e-15 -0 -1.60576e-15 2.67456e-30 0 -0 0 0)
(1 -1.23857e-15 -0 -1.24905e-15 1.54704e-30 0 -0 0 0)
(1 -8.83416e-16 -0 -9.21983e-16 8.14494e-31 0 -0 0 0)
(1 -5.81933e-16 -0 -6.1831e-16 3.59815e-31 0 -0 0 0)
(1 -3.31767e-16 -0 -4.07851e-16 1.35312e-31 0 -0 0 0)
(1 -1.50294e-16 -0 -2.09066e-16 3.14213e-32 0 -0 0 0)
(1 -9.83853e-17 -0 -6.22262e-17 6.12214e-33 0 -0 0 0)
(1 -2.98718e-09 -0 -2.94315e-09 8.79172e-18 0 -0 0 0)
(1 7.08868e-10 -0 6.98421e-10 4.95088e-19 -0 -0 -0 0)
(1 -1.68234e-10 -0 -1.65755e-10 2.78857e-20 0 -0 0 0)
(1 3.98924e-11 -0 3.93044e-11 1.56795e-21 -0 -0 -0 0)
(1 -9.49283e-12 -0 -9.35312e-12 8.87875e-23 0 -0 0 0)
(1 2.23059e-12 -0 2.19762e-12 4.90201e-24 -0 -0 -0 0)
(1 -5.4699e-13 -0 -5.39085e-13 2.94874e-25 0 -0 0 0)
(1 1.16194e-13 -0 1.1441e-13 1.32938e-26 -0 -0 -0 0)
(1 -3.78846e-14 -0 -3.72955e-14 1.41292e-27 0 -0 0 0)
(1 1.33975e-15 -0 1.35505e-15 1.81543e-30 -0 -0 -0 0)
(1 -6.02104e-15 -0 -5.96555e-15 3.59188e-29 0 -0 0 0)
(1 -2.87914e-15 -0 -2.79455e-15 8.04591e-30 0 -0 0 0)
(1 -2.5123e-15 -0 -2.4661e-15 6.19557e-30 0 -0 0 0)
(1 -1.72269e-15 -0 -1.75289e-15 3.01969e-30 0 -0 0 0)
(1 -1.33325e-15 -0 -1.3569e-15 1.80908e-30 0 -0 0 0)
(1 -9.97674e-16 -0 -1.00788e-15 1.00554e-30 0 -0 0 0)
(1 -7.2955e-16 -0 -7.618e-16 5.55771e-31 0 -0 0 0)
(1 -4.61958e-16 -0 -5.06895e-16 2.34164e-31 0 -0 0 0)
(1 -2.15292e-16 -0 -3.07615e-16 6.6227e-32 0 -0 0 0)
(1 -1.61057e-16 -0 -1.0893e-16 1.7544e-32 0 -0 0 0)
(1 2.97916e-09 -0 2.93526e-09 8.74462e-18 -0 -0 -0 0)
(1 -7.06862e-10 -0 -6.96448e-10 4.92293e-19 0 -0 0 0)
(1 1.67703e-10 -0 1.65232e-10 2.77099e-20 -0 -0 -0 0)
(1 -3.9808e-11 -0 -3.92217e-11 1.56134e-21 0 -0 0 0)
(1 9.42646e-12 -0 9.28754e-12 8.75487e-23 -0 -0 -0 0)
(1 -2.25326e-12 -0 -2.22019e-12 5.00266e-24 0 -0 0 0)
(1 5.2052e-13 -0 5.12793e-13 2.66919e-25 -0 -0 -0 0)
(1 -1.34852e-13 -0 -1.32866e-13 1.79172e-26 0 -0 0 0)
(1 2.30749e-14 -0 2.26968e-14 5.23725e-28 -0 -0 -0 0)
(1 -1.23641e-14 -0 -1.21996e-14 1.50837e-28 0 -0 0 0)
(1 -2.33594e-15 -0 -2.30774e-15 5.39073e-30 0 -0 0 0)
(1 -3.45487e-15 -0 -3.45693e-15 1.19432e-29 0 -0 0 0)
(1 -2.25531e-15 -0 -2.31251e-15 5.21542e-30 0 -0 0 0)
(1 -1.82762e-15 -0 -1.92193e-15 3.51256e-30 0 -0 0 0)
(1 -1.36136e-15 -0 -1.37563e-15 1.87272e-30 0 -0 0 0)
(1 -9.22408e-16 -0 -9.89731e-16 9.12936e-31 0 -0 0 0)
(1 -7.20204e-16 -0 -7.9754e-16 5.74392e-31 0 -0 0 0)
(1 -4.78116e-16 -0 -4.98702e-16 2.38438e-31 0 -0 0 0)
(1 -2.69136e-16 -0 -2.90731e-16 7.82462e-32 0 -0 0 0)
(1 -2.125e-16 -0 -8.83879e-17 1.87825e-32 0 -0 0 0)
(1 -2.97002e-09 -0 -2.92625e-09 8.69103e-18 0 -0 0 0)
(1 7.04626e-10 -0 6.94245e-10 4.89183e-19 -0 -0 -0 0)
(1 -1.67191e-10 -0 -1.64728e-10 2.7541e-20 0 -0 0 0)
(1 3.96539e-11 -0 3.90698e-11 1.54927e-21 -0 -0 -0 0)
(1 -9.42068e-12 -0 -9.28189e-12 8.74417e-23 0 -0 0 0)
(1 2.22303e-12 -0 2.19029e-12 4.86908e-24 -0 -0 -0 0)
(1 -5.3805e-13 -0 -5.30138e-13 2.85241e-25 0 -0 0 0)
(1 1.18735e-13 -0 1.16962e-13 1.38874e-26 -0 -0 -0 0)
(1 -3.53748e-14 -0 -3.50058e-14 1.23832e-27 0 -0 0 0)
(1 2.61985e-15 -0 2.45456e-15 6.43058e-30 -0 -0 -0 0)
(1 -5.23093e-15 -0 -5.09399e-15 2.66463e-29 0 -0 0 0)
(1 -2.33482e-15 -0 -2.3253e-15 5.42915e-30 0 -0 0 0)
(1 -2.1989e-15 -0 -2.27039e-15 4.99235e-30 0 -0 0 0)
(1 -1.66878e-15 -0 -1.75656e-15 2.93131e-30 0 -0 0 0)
(1 -1.30999e-15 -0 -1.39841e-15 1.83191e-30 0 -0 0 0)
(1 -9.10707e-16 -0 -9.92813e-16 9.04162e-31 0 -0 0 0)
(1 -6.42476e-16 -0 -6.60008e-16 4.2404e-31 0 -0 0 0)
(1 -2.94743e-16 -0 -3.0585e-16 9.01471e-32 0 -0 0 0)
(1 -2.23482e-16 -0 -1.87446e-16 4.18908e-32 0 -0 0 0)
(1 -2.02784e-16 -0 -6.96575e-17 1.41254e-32 0 -0 0 0)
(1 2.96121e-09 -0 2.91756e-09 8.63951e-18 -0 -0 -0 0)
(1 -7.0251e-10 -0 -6.92158e-10 4.86248e-19 0 -0 0 0)
(1 1.66669e-10 -0 1.64214e-10 2.73693e-20 -0 -0 -0 0)
(1 -3.9549e-11 -0 -3.89665e-11 1.54109e-21 0 -0 0 0)
(1 9.37366e-12 -0 9.23564e-12 8.65718e-23 -0 -0 -0 0)
(1 -2.23249e-12 -0 -2.19954e-12 4.91045e-24 0 -0 0 0)
(1 5.21874e-13 -0 5.14139e-13 2.68316e-25 -0 -0 -0 0)
(1 -1.30636e-13 -0 -1.28767e-13 1.68216e-26 0 -0 0 0)
(1 2.52207e-14 -0 2.48691e-14 6.27216e-28 -0 -0 -0 0)
(1 -1.06927e-14 -0 -1.04695e-14 1.11946e-28 0 -0 0 0)
(1 -1.20579e-15 -0 -1.03903e-15 1.25286e-30 0 -0 0 0)
(1 -2.50285e-15 -0 -2.49369e-15 6.24133e-30 0 -0 0 0)
(1 -1.52774e-15 -0 -1.67273e-15 2.55551e-30 0 -0 0 0)
(1 -1.37378e-15 -0 -1.47429e-15 2.02536e-30 0 -0 0 0)
(1 -1.06334e-15 -0 -1.25556e-15 1.33509e-30 0 -0 0 0)
(1 -8.98563e-16 -0 -9.12145e-16 8.1962e-31 0 -0 0 0)
(1 -5.42819e-16 -0 -5.143e-16 2.79172e-31 0 -0 0 0)
(1 -2.43096e-16 -0 -2.07448e-16 5.04298e-32 0 -0 0 0)
(1 -1.38282e-16 -0 -1.29206e-16 1.78669e-32 0 -0 0 0)
(1 -1.4392e-16 -0 -6.96745e-17 1.00276e-32 0 -0 0 0)
(1 -2.95218e-09 -0 -2.90867e-09 8.58691e-18 0 -0 0 0)
(1 7.00351e-10 -0 6.90029e-10 4.83262e-19 -0 -0 -0 0)
(1 -1.66165e-10 -0 -1.63716e-10 2.7204e-20 0 -0 0 0)
(1 3.94161e-11 -0 3.88354e-11 1.53074e-21 -0 -0 -0 0)
(1 -9.35624e-12 -0 -9.21831e-12 8.62487e-23 0 -0 0 0)
(1 2.21425e-12 -0 2.18176e-12 4.83096e-24 -0 -0 -0 0)
(1 -5.30291e-13 -0 -5.22418e-13 2.77033e-25 0 -0 0 0)
(1 1.21389e-13 -0 1.19635e-13 1.45223e-26 -0 -0 -0 0)
(1 -3.24502e-14 -0 -3.19336e-14 1.03625e-27 0 -0 0 0)
(1 4.62327e-15 -0 4.61814e-15 2.13509e-29 -0 -0 -0 0)
(1 -3.58358e-15 -0 -3.58659e-15 1.28528e-29 0 -0 0 0)
(1 -1.1469e-15 -0 -1.26227e-15 1.44769e-30 0 -0 0 0)
(1 -1.34205e-15 -0 -1.45153e-15 1.94803e-30 0 -0 0 0)
(1 -9.8007e-16 -0 -1.03947e-15 1.01875e-30 0 -0 0 0)
(1 -7.13279e-16 -0 -7.9181e-16 5.64781e-31 0 -0 0 0)
(1 -5.06393e-16 -0 -5.83604e-16 2.95533e-31 0 -0 0 0)
(1 -3.29508e-16 -0 -3.83781e-16 1.26459e-31 0 -0 0 0)
(1 -2.52428e-16 -0 -2.42227e-16 6.11448e-32 0 -0 0 0)
(1 -7.87242e-17 -0 -6.41611e-17 5.05103e-33 0 -0 0 0)
(1 -9.76822e-17 -0 6.62118e-18 -6.46772e-34 -0 -0 0 0)
(1 2.94357e-09 -0 2.90017e-09 8.53686e-18 -0 -0 -0 0)
(1 -6.98309e-10 -0 -6.88014e-10 4.80446e-19 0 -0 0 0)
(1 1.65674e-10 -0 1.63232e-10 2.70433e-20 -0 -0 -0 0)
(1 -3.93069e-11 -0 -3.87274e-11 1.52225e-21 0 -0 0 0)
(1 9.32212e-12 -0 9.1849e-12 8.56227e-23 -0 -0 -0 0)
(1 -2.21425e-12 -0 -2.18156e-12 4.83051e-24 0 -0 0 0)
(1 5.2288e-13 -0 5.15255e-13 2.69417e-25 -0 -0 -0 0)
(1 -1.26143e-13 -0 -1.24235e-13 1.56714e-26 0 -0 0 0)
(1 2.81929e-14 -0 2.77826e-14 7.83272e-28 -0 -0 -0 0)
(1 -8.18687e-15 -0 -8.12108e-15 6.64862e-29 0 -0 0 0)
(1 5.85182e-16 -0 3.97326e-16 2.32508e-31 -0 -0 -0 0)
(1 -1.47696e-15 -0 -1.49661e-15 2.21043e-30 0 -0 0 0)
(1 -8.2844e-16 -0 -7.76031e-16 6.42896e-31 0 -0 0 0)
(1 -7.09877e-16 -0 -7.49794e-16 5.32261e-31 0 -0 0 0)
(1 -4.75275e-16 -0 -4.66271e-16 2.21607e-31 0 -0 0 0)
(1 -2.91859e-16 -0 -4.0312e-16 1.17654e-31 0 -0 0 0)
(1 -2.20374e-16 -0 -2.44694e-16 5.39242e-32 0 -0 0 0)
(1 -1.3634e-16 -0 -2.31622e-16 3.15793e-32 0 -0 0 0)
(1 -1.07706e-16 -0 -1.31543e-16 1.4168e-32 0 -0 0 0)
(1 -1.28434e-16 -0 -3.97296e-17 5.10265e-33 0 -0 0 0)
(1 -2.93512e-09 -0 -2.89183e-09 8.48788e-18 0 -0 0 0)
(1 6.96306e-10 -0 6.86037e-10 4.77691e-19 -0 -0 -0 0)
(1 -1.65201e-10 -0 -1.62765e-10 2.6889e-20 0 -0 0 0)
(1 3.91921e-11 -0 3.86143e-11 1.51338e-21 -0 -0 -0 0)
(1 -9.29763e-12 -0 -9.16062e-12 8.51721e-23 0 -0 0 0)
(1 2.20575e-12 -0 2.17321e-12 4.79356e-24 -0 -0 -0 0)
(1 -5.23422e-13 -0 -5.15669e-13 2.69913e-25 0 -0 0 0)
(1 1.23943e-13 -0 1.22102e-13 1.51338e-26 -0 -0 -0 0)
(1 -2.98821e-14 -0 -2.94077e-14 8.78763e-28 0 -0 0 0)
(1 6.48531e-15 -0 6.41828e-15 4.16246e-29 -0 -0 -0 0)
(1 -2.05916e-15 -0 -2.03077e-15 4.18168e-30 0 -0 0 0)
(1 4.5964e-17 -0 1.18588e-16 5.45078e-33 -0 -0 -0 0)
(1 -3.42729e-16 -0 -2.83523e-16 9.71716e-32 0 -0 0 0)
(1 -1.89283e-16 -0 -1.6494e-16 3.12203e-32 0 -0 0 0)
(1 -2.12475e-16 -0 -2.10712e-16 4.47711e-32 0 -0 0 0)
(1 -1.931e-16 -0 -2.30066e-16 4.44257e-32 0 -0 0 0)
(1 -1.79056e-16 -0 -2.23712e-16 4.00569e-32 0 -0 0 0)
(1 -1.24064e-16 -0 -1.85745e-16 2.30443e-32 0 -0 0 0)
(1 -4.03309e-17 -0 -8.97612e-17 3.62015e-33 0 -0 0 0)
(1 -5.6691e-17 -0 -5.49667e-17 3.11612e-33 0 -0 0 0)
(1 2.927e-09 -0 2.88381e-09 8.44092e-18 -0 -0 -0 0)
(1 -6.9439e-10 -0 -6.84144e-10 4.75062e-19 0 -0 0 0)
(1 1.64749e-10 -0 1.62318e-10 2.67417e-20 -0 -0 -0 0)
(1 -3.9083e-11 -0 -3.85065e-11 1.50495e-21 0 -0 0 0)
(1 9.27443e-12 -0 9.13758e-12 8.47458e-23 -0 -0 -0 0)
(1 -2.19794e-12 -0 -2.16555e-12 4.75975e-24 0 -0 0 0)
(1 5.23439e-13 -0 5.15769e-13 2.69974e-25 -0 -0 -0 0)
(1 -1.22536e-13 -0 -1.20709e-13 1.47912e-26 0 -0 0 0)
(1 3.02206e-14 -0 2.9838e-14 9.01722e-28 -0 -0 -0 0)
(1 -6.36414e-15 -0 -6.10662e-15 3.88634e-29 0 -0 0 0)
(1 2.23892e-15 -0 2.30818e-15 5.16783e-30 -0 -0 -0 0)
(1 6.1062e-17 -0 6.40902e-17 3.91348e-33 -0 -0 -0 0)
(1 3.43755e-16 -0 3.30186e-16 1.13503e-31 -0 -0 -0 0)
(1 9.18702e-17 -0 1.43742e-16 1.32056e-32 -0 -0 -0 0)
(1 8.99015e-17 -0 1.05936e-16 9.52384e-33 -0 -0 -0 0)
(1 1.89584e-17 -0 8.13339e-18 1.54196e-34 -0 -0 -0 0)
(1 -7.84465e-17 -0 -1.75317e-16 1.3753e-32 0 -0 0 0)
(1 -1.77869e-16 -0 -1.89186e-16 3.36504e-32 0 -0 0 0)
(1 -1.09309e-18 -0 -5.77574e-17 6.31341e-35 0 -0 0 0)
(1 -3.06832e-17 -0 -2.23458e-17 6.85641e-34 0 -0 0 0)
(1 -2.91927e-09 -0 -2.87616e-09 8.39629e-18 0 -0 0 0)
(1 6.92569e-10 -0 6.82344e-10 4.7257e-19 -0 -0 -0 0)
(1 -1.64312e-10 -0 -1.61886e-10 2.65997e-20 0 -0 0 0)
(1 3.89871e-11 -0 3.84116e-11 1.49756e-21 -0 -0 -0 0)
(1 -9.24382e-12 -0 -9.10738e-12 8.4187e-23 0 -0 0 0)
(1 2.19817e-12 -0 2.16575e-12 4.76069e-24 -0 -0 -0 0)
(1 -5.17111e-13 -0 -5.09434e-13 2.63434e-25 0 -0 0 0)
(1 1.26259e-13 -0 1.24446e-13 1.57125e-26 -0 -0 -0 0)
(1 -2.71352e-14 -0 -2.67086e-14 7.24744e-28 0 -0 0 0)
(1 8.75132e-15 -0 8.71605e-15 7.62769e-29 -0 -0 -0 0)
(1 -2.48192e-16 -0 -1.71345e-16 4.25264e-32 0 -0 0 0)
(1 1.48269e-15 -0 1.41731e-15 2.10143e-30 -0 -0 -0 0)
(1 5.67676e-16 -0 5.10383e-16 2.89732e-31 -0 -0 -0 0)
(1 4.06637e-16 -0 3.96942e-16 1.61411e-31 -0 -0 -0 0)
(1 2.97297e-16 -0 3.12906e-16 9.30258e-32 -0 -0 -0 0)
(1 1.95798e-16 -0 2.68736e-16 5.26179e-32 -0 -0 -0 0)
(1 1.01509e-16 -0 1.47688e-16 1.49916e-32 -0 -0 -0 0)
(1 6.78127e-17 -0 5.63265e-17 3.81965e-33 -0 -0 -0 0)
(1 6.52749e-17 -0 -2.30869e-17 -1.50699e-33 0 -0 -0 0)
(1 -4.7061e-17 -0 -1.85017e-17 8.70708e-34 0 -0 0 0)
(1 2.91166e-09 -0 2.86864e-09 8.35251e-18 -0 -0 -0 0)
(1 -6.90778e-10 -0 -6.80572e-10 4.70124e-19 0 -0 0 0)
(1 1.63899e-10 -0 1.61478e-10 2.6466e-20 -0 -0 -0 0)
(1 -3.8876e-11 -0 -3.83019e-11 1.48902e-21 0 -0 0 0)
(1 9.23224e-12 -0 9.09576e-12 8.39742e-23 -0 -0 -0 0)
(1 -2.18219e-12 -0 -2.14998e-12 4.69167e-24 0 -0 0 0)
(1 5.24625e-13 -0 5.16928e-13 2.71194e-25 -0 -0 -0 0)
(1 -1.1884e-13 -0 -1.17019e-13 1.39066e-26 0 -0 0 0)
(1 3.26166e-14 -0 3.20972e-14 1.0469e-27 -0 -0 -0 0)
(1 -4.35283e-15 -0 -4.3167e-15 1.87898e-29 0 -0 0 0)
(1 3.52349e-15 -0 3.59508e-15 1.26672e-29 -0 -0 -0 0)
(1 1.15118e-15 -0 1.19852e-15 1.37971e-30 -0 -0 -0 0)
(1 1.32951e-15 -0 1.29404e-15 1.72044e-30 -0 -0 -0 0)
(1 8.99664e-16 -0 8.2939e-16 7.46172e-31 -0 -0 -0 0)
(1 5.78026e-16 -0 5.56349e-16 3.21584e-31 -0 -0 -0 0)
(1 3.37985e-16 -0 3.86635e-16 1.30677e-31 -0 -0 -0 0)
(1 2.2599e-16 -0 3.29755e-16 7.45212e-32 -0 -0 -0 0)
(1 2.44793e-16 -0 2.26578e-16 5.54646e-32 -0 -0 -0 0)
(1 1.19327e-16 -0 1.01754e-17 1.21419e-33 -0 -0 -0 0)
(1 -4.26882e-17 -0 -2.2351e-17 9.54125e-34 0 -0 0 0)
(1 -2.90458e-09 -0 -2.86163e-09 8.31183e-18 0 -0 0 0)
(1 6.8912e-10 -0 6.78931e-10 4.67865e-19 -0 -0 -0 0)
(1 -1.63487e-10 -0 -1.6107e-10 2.6333e-20 0 -0 0 0)
(1 3.88014e-11 -0 3.82278e-11 1.48329e-21 -0 -0 -0 0)
(1 -9.19177e-12 -0 -9.05593e-12 8.324e-23 0 -0 0 0)
(1 2.19298e-12 -0 2.16059e-12 4.73812e-24 -0 -0 -0 0)
(1 -5.10197e-13 -0 -5.02638e-13 2.56444e-25 0 -0 0 0)
(1 1.29039e-13 -0 1.27145e-13 1.64066e-26 -0 -0 -0 0)
(1 -2.44669e-14 -0 -2.41056e-14 5.89791e-28 0 -0 0 0)
(1 1.03346e-14 -0 1.01683e-14 1.05086e-28 -0 -0 -0 0)
(1 8.5095e-16 -0 8.59395e-16 7.31302e-31 -0 -0 -0 0)
(1 2.26298e-15 -0 2.22169e-15 5.02765e-30 -0 -0 -0 0)
(1 1.34904e-15 -0 1.25672e-15 1.69537e-30 -0 -0 -0 0)
(1 1.09844e-15 -0 1.01632e-15 1.11637e-30 -0 -0 -0 0)
(1 7.00572e-16 -0 6.22378e-16 4.36021e-31 -0 -0 -0 0)
(1 3.68149e-16 -0 3.65599e-16 1.34595e-31 -0 -0 -0 0)
(1 2.91264e-16 -0 3.44895e-16 1.00456e-31 -0 -0 -0 0)
(1 2.14894e-16 -0 1.98468e-16 4.26495e-32 -0 -0 -0 0)
(1 9.15355e-17 -0 6.76768e-17 6.19484e-33 -0 -0 -0 0)
(1 -3.95678e-17 -0 3.93862e-19 -1.55843e-35 -0 -0 0 0)
(1 2.89726e-09 -0 2.85438e-09 8.26989e-18 -0 -0 -0 0)
(1 -6.87395e-10 -0 -6.77223e-10 4.6552e-19 0 -0 0 0)
(1 1.63112e-10 -0 1.60698e-10 2.62118e-20 -0 -0 -0 0)
(1 -3.86783e-11 -0 -3.8106e-11 1.47387e-21 0 -0 0 0)
(1 9.19682e-12 -0 9.06077e-12 8.33303e-23 -0 -0 -0 0)
(1 -2.1652e-12 -0 -2.13316e-12 4.61871e-24 0 -0 0 0)
(1 5.27043e-13 -0 5.19165e-13 2.73622e-25 -0 -0 -0 0)
(1 -1.15081e-13 -0 -1.13466e-13 1.30577e-26 0 -0 0 0)
(1 3.45157e-14 -0 3.40206e-14 1.17424e-27 -0 -0 -0 0)
(1 -2.97934e-15 -0 -2.89572e-15 8.62732e-30 0 -0 0 0)
(1 4.51466e-15 -0 4.38239e-15 1.9785e-29 -0 -0 -0 0)
(1 1.63599e-15 -0 1.53055e-15 2.50398e-30 -0 -0 -0 0)
(1 1.46247e-15 -0 1.39937e-15 2.04653e-30 -0 -0 -0 0)
(1 9.97111e-16 -0 9.55374e-16 9.52615e-31 -0 -0 -0 0)
(1 8.17067e-16 -0 7.78165e-16 6.35812e-31 -0 -0 -0 0)
(1 6.01078e-16 -0 5.60261e-16 3.36761e-31 -0 -0 -0 0)
(1 4.68009e-16 -0 4.2847e-16 2.00528e-31 -0 -0 -0 0)
(1 2.61345e-16 -0 3.13125e-16 8.18337e-32 -0 -0 -0 0)
(1 1.66693e-16 -0 2.49556e-16 4.15994e-32 -0 -0 -0 0)
(1 3.71019e-17 -0 8.64708e-17 3.20823e-33 -0 -0 -0 0)
(1 -2.89058e-09 -0 -2.84776e-09 8.23167e-18 0 -0 0 0)
(1 6.85846e-10 -0 6.75687e-10 4.63417e-19 -0 -0 -0 0)
(1 -1.62689e-10 -0 -1.6028e-10 2.60758e-20 0 -0 0 0)
(1 3.86331e-11 -0 3.8061e-11 1.47041e-21 -0 -0 -0 0)
(1 -9.13617e-12 -0 -9.00095e-12 8.22342e-23 0 -0 0 0)
(1 2.18994e-12 -0 2.15744e-12 4.72465e-24 -0 -0 -0 0)
(1 -5.03283e-13 -0 -4.95945e-13 2.49601e-25 0 -0 0 0)
(1 1.30702e-13 -0 1.28706e-13 1.68221e-26 -0 -0 -0 0)
(1 -2.32442e-14 -0 -2.2926e-14 5.32896e-28 0 -0 0 0)
(1 1.08865e-14 -0 1.07235e-14 1.16742e-28 -0 -0 -0 0)
(1 1.16352e-15 -0 1.09793e-15 1.27746e-30 -0 -0 -0 0)
(1 2.24942e-15 -0 2.20769e-15 4.96603e-30 -0 -0 -0 0)
(1 1.18203e-15 -0 1.2314e-15 1.45555e-30 -0 -0 -0 0)
(1 1.02434e-15 -0 1.04917e-15 1.07471e-30 -0 -0 -0 0)
(1 7.8142e-16 -0 8.12315e-16 6.34759e-31 -0 -0 -0 0)
(1 6.91366e-16 -0 6.63256e-16 4.58553e-31 -0 -0 -0 0)
(1 4.58306e-16 -0 4.35791e-16 1.99726e-31 -0 -0 -0 0)
(1 2.78153e-16 -0 3.34419e-16 9.30195e-32 -0 -0 -0 0)
(1 1.51291e-16 -0 1.98509e-16 3.00325e-32 -0 -0 -0 0)
(1 1.31402e-17 -0 5.42683e-17 7.13096e-34 -0 -0 -0 0)
(1 2.88309e-09 -0 2.84033e-09 8.18891e-18 -0 -0 -0 0)
(1 -6.84071e-10 -0 -6.73928e-10 4.61015e-19 0 -0 0 0)
(1 1.62388e-10 -0 1.5998e-10 2.59788e-20 -0 -0 -0 0)
(1 -3.84719e-11 -0 -3.79015e-11 1.45814e-21 0 -0 0 0)
(1 9.1719e-12 -0 9.03602e-12 8.28775e-23 -0 -0 -0 0)
(1 -2.14933e-12 -0 -2.11746e-12 4.55111e-24 0 -0 0 0)
(1 5.27594e-13 -0 5.19769e-13 2.74227e-25 -0 -0 -0 0)
(1 -1.13961e-13 -0 -1.1226e-13 1.27933e-26 0 -0 0 0)
(1 3.4503e-14 -0 3.39442e-14 1.17118e-27 -0 -0 -0 0)
(1 -3.21792e-15 -0 -3.26503e-15 1.05066e-29 0 -0 0 0)
(1 4.08327e-15 -0 3.90251e-15 1.5935e-29 -0 -0 -0 0)
(1 1.17645e-15 -0 1.13571e-15 1.33611e-30 -0 -0 -0 0)
(1 1.18783e-15 -0 1.27928e-15 1.51956e-30 -0 -0 -0 0)
(1 8.47152e-16 -0 8.9652e-16 7.5949e-31 -0 -0 -0 0)
(1 6.10997e-16 -0 6.29912e-16 3.84874e-31 -0 -0 -0 0)
(1 4.4054e-16 -0 4.70464e-16 2.07258e-31 -0 -0 -0 0)
(1 3.31322e-16 -0 3.45602e-16 1.14506e-31 -0 -0 -0 0)
(1 1.77112e-16 -0 2.18349e-16 3.86722e-32 -0 -0 -0 0)
(1 5.79732e-17 -0 8.66405e-17 5.02283e-33 -0 -0 -0 0)
(1 -3.275e-17 -0 4.63369e-17 -1.51753e-33 -0 -0 0 0)
(1 -2.87707e-09 -0 -2.83436e-09 8.15464e-18 0 -0 0 0)
(1 6.82785e-10 -0 6.7265e-10 4.59275e-19 -0 -0 -0 0)
(1 -1.61753e-10 -0 -1.59352e-10 2.57757e-20 0 -0 0 0)
(1 3.84501e-11 -0 3.78796e-11 1.45648e-21 -0 -0 -0 0)
(1 -9.06637e-12 -0 -8.93179e-12 8.09789e-23 0 -0 0 0)
(1 2.17335e-12 -0 2.14115e-12 4.65346e-24 -0 -0 -0 0)
(1 -5.00789e-13 -0 -4.93378e-13 2.47079e-25 0 -0 0 0)
(1 1.26939e-13 -0 1.2505e-13 1.58737e-26 -0 -0 -0 0)
(1 -2.48166e-14 -0 -2.44115e-14 6.05811e-28 0 -0 0 0)
(1 9.26901e-15 -0 9.14794e-15 8.47923e-29 -0 -0 -0 0)
(1 2.12223e-16 -0 1.82958e-16 3.88279e-32 -0 -0 -0 0)
(1 1.63136e-15 -0 1.55364e-15 2.53454e-30 -0 -0 -0 0)
(1 8.23871e-16 -0 8.02988e-16 6.61558e-31 -0 -0 -0 0)
(1 6.41315e-16 -0 6.70237e-16 4.29833e-31 -0 -0 -0 0)
(1 4.33165e-16 -0 5.2752e-16 2.28503e-31 -0 -0 -0 0)
(1 3.55598e-16 -0 3.35062e-16 1.19147e-31 -0 -0 -0 0)
(1 2.54732e-16 -0 1.73634e-16 4.42302e-32 -0 -0 -0 0)
(1 4.98104e-17 -0 6.65439e-17 3.31457e-33 -0 -0 -0 0)
(1 7.61056e-18 -0 3.9978e-17 3.04255e-34 -0 -0 -0 0)
(1 -3.88811e-17 -0 4.04285e-17 -1.57191e-33 -0 -0 0 0)
(1 2.87003e-09 -0 2.82738e-09 8.11468e-18 -0 -0 -0 0)
(1 -6.80319e-10 -0 -6.70204e-10 4.55953e-19 0 -0 0 0)
(1 1.61598e-10 -0 1.59196e-10 2.57259e-20 -0 -0 -0 0)
(1 -3.82935e-11 -0 -3.77241e-11 1.44459e-21 0 -0 0 0)
(1 9.11066e-12 -0 8.97515e-12 8.17695e-23 -0 -0 -0 0)
(1 -2.15316e-12 -0 -2.12116e-12 4.56721e-24 0 -0 0 0)
(1 5.1661e-13 -0 5.08883e-13 2.62894e-25 -0 -0 -0 0)
(1 -1.19675e-13 -0 -1.17931e-13 1.41133e-26 0 -0 0 0)
(1 3.02277e-14 -0 2.98319e-14 9.01748e-28 -0 -0 -0 0)
(1 -6.02259e-15 -0 -5.85711e-15 3.5275e-29 0 -0 0 0)
(1 2.34059e-15 -0 2.33715e-15 5.47031e-30 -0 -0 -0 0)
(1 1.2994e-16 -0 7.75137e-17 1.00721e-32 -0 -0 -0 0)
(1 4.65914e-16 -0 3.87589e-16 1.80583e-31 -0 -0 -0 0)
(1 1.66993e-16 -0 2.17789e-16 3.63692e-32 -0 -0 -0 0)
(1 1.87239e-16 -0 2.92903e-16 5.48427e-32 -0 -0 -0 0)
(1 2.13095e-16 -0 1.90588e-16 4.06134e-32 -0 -0 -0 0)
(1 1.37777e-16 -0 6.41563e-17 8.83926e-33 -0 -0 -0 0)
(1 5.01048e-18 -0 -1.42548e-17 -7.14236e-35 0 -0 -0 0)
(1 -1.03113e-17 -0 -4.47397e-19 4.61324e-36 0 -0 0 0)
(1 -2.44404e-17 -0 -8.44558e-18 2.06413e-34 0 -0 0 0)
)
;

boundaryField
{
    movingWall
    {
        type            calculated;
        value           uniform (1 0 0 0 0 0 0 0 0);
    }
    fixedWalls
    {
        type            calculated;
        value           uniform (1 0 0 0 0 0 0 0 0);
    }
    frontAndBack
    {
        type            empty;
    }
}


// ************************************************************************* //
