/*--------------------------------*- C++ -*----------------------------------*\
| =========                 |                                                 |
| \\      /  F ield         | OpenFOAM: The Open Source CFD Toolbox           |
|  \\    /   O peration     | Version:  2506                                  |
|   \\  /    A nd           | Website:  www.openfoam.com                      |
|    \\/     M anipulation  |                                                 |
\*---------------------------------------------------------------------------*/
FoamFile
{
    version     2.0;
    format      ascii;
    arch        "LSB;label=32;scalar=64";
    class       volVectorField;
    location    "5";
    object      UNear;
}
// * * * * * * * * * * * * * * * * * * * * * * * * * * * * * * * * * * * * * //

dimensions      [0 1 -1 0 0 0 0];

internalField   nonuniform List<vector> 
400
(
(-1 2.94669e-09 0)
(-1 -6.9921e-10 0)
(-1 1.66225e-10 0)
(-1 -3.9406e-11 0)
(-1 9.39196e-12 0)
(-1 -2.2184e-12 0)
(-1 5.34384e-13 0)
(-1 -1.23113e-13 0)
(-1 3.17571e-14 0)
(-1 -5.81248e-15 0)
(-1 2.64777e-15 0)
(-1 2.46887e-16 0)
(-1 5.28338e-16 0)
(-1 2.89025e-16 0)
(-1 2.75944e-16 0)
(-1 2.37794e-16 0)
(-1 1.67104e-16 0)
(-1 1.08648e-16 0)
(-1 6.45398e-17 0)
(-1 7.2241e-17 0)
(-1 -2.95153e-09 0)
(-1 7.0157e-10 0)
(-1 -1.66244e-10 0)
(-1 3.95876e-11 0)
(-1 -9.3328e-12 0)
(-1 2.24595e-12 0)
(-1 -5.14541e-13 0)
(-1 1.32944e-13 0)
(-1 -2.44384e-14 0)
(-1 1.05777e-14 0)
(-1 8.38021e-16 0)
(-1 2.15449e-15 0)
(-1 1.11283e-15 0)
(-1 8.06308e-16 0)
(-1 5.47455e-16 0)
(-1 5.40525e-16 0)
(-1 4.40629e-16 0)
(-1 2.35666e-16 0)
(-1 1.22598e-16 0)
(-1 8.63522e-17 0)
(-1 2.95142e-09 0)
(-1 -7.01012e-10 0)
(-1 1.6649e-10 0)
(-1 -3.94579e-11 0)
(-1 9.42603e-12 0)
(-1 -2.20317e-12 0)
(-1 5.45899e-13 0)
(-1 -1.14855e-13 0)
(-1 3.74149e-14 0)
(-1 -1.9778e-15 0)
(-1 5.28308e-15 0)
(-1 2.16938e-15 0)
(-1 1.90948e-15 0)
(-1 1.20211e-15 0)
(-1 8.70769e-16 0)
(-1 7.04295e-16 0)
(-1 5.34102e-16 0)
(-1 3.32831e-16 0)
(-1 1.6543e-16 0)
(-1 4.3779e-17 0)
(-1 -2.95e-09 0)
(-1 7.00302e-10 0)
(-1 -1.66154e-10 0)
(-1 3.94753e-11 0)
(-1 -9.33314e-12 0)
(-1 2.24342e-12 0)
(-1 -5.11565e-13 0)
(-1 1.36443e-13 0)
(-1 -2.15548e-14 0)
(-1 1.29331e-14 0)
(-1 2.61795e-15 0)
(-1 3.47121e-15 0)
(-1 2.08554e-15 0)
(-1 1.60576e-15 0)
(-1 1.24905e-15 0)
(-1 9.21983e-16 0)
(-1 6.1831e-16 0)
(-1 4.07851e-16 0)
(-1 2.09066e-16 0)
(-1 6.22262e-17 0)
(-1 2.94315e-09 0)
(-1 -6.98421e-10 0)
(-1 1.65755e-10 0)
(-1 -3.93044e-11 0)
(-1 9.35312e-12 0)
(-1 -2.19762e-12 0)
(-1 5.39085e-13 0)
(-1 -1.1441e-13 0)
(-1 3.72955e-14 0)
(-1 -1.35505e-15 0)
(-1 5.96555e-15 0)
(-1 2.79455e-15 0)
(-1 2.4661e-15 0)
(-1 1.75289e-15 0)
(-1 1.3569e-15 0)
(-1 1.00788e-15 0)
(-1 7.618e-16 0)
(-1 5.06895e-16 0)
(-1 3.07615e-16 0)
(-1 1.0893e-16 0)
(-1 -2.93526e-09 0)
(-1 6.96448e-10 0)
(-1 -1.65232e-10 0)
(-1 3.92217e-11 0)
(-1 -9.28754e-12 0)
(-1 2.22019e-12 0)
(-1 -5.12793e-13 0)
(-1 1.32866e-13 0)
(-1 -2.26968e-14 0)
(-1 1.21996e-14 0)
(-1 2.30774e-15 0)
(-1 3.45693e-15 0)
(-1 2.31251e-15 0)
(-1 1.92193e-15 0)
(-1 1.37563e-15 0)
(-1 9.89731e-16 0)
(-1 7.9754e-16 0)
(-1 4.98702e-16 0)
(-1 2.90731e-16 0)
(-1 8.83879e-17 0)
(-1 2.92625e-09 0)
(-1 -6.94245e-10 0)
(-1 1.64728e-10 0)
(-1 -3.90698e-11 0)
(-1 9.28189e-12 0)
(-1 -2.19029e-12 0)
(-1 5.30138e-13 0)
(-1 -1.16962e-13 0)
(-1 3.50058e-14 0)
(-1 -2.45456e-15 0)
(-1 5.09399e-15 0)
(-1 2.3253e-15 0)
(-1 2.27039e-15 0)
(-1 1.75656e-15 0)
(-1 1.39841e-15 0)
(-1 9.92813e-16 0)
(-1 6.60008e-16 0)
(-1 3.0585e-16 0)
(-1 1.87446e-16 0)
(-1 6.96575e-17 0)
(-1 -2.91756e-09 0)
(-1 6.92158e-10 0)
(-1 -1.64214e-10 0)
(-1 3.89665e-11 0)
(-1 -9.23564e-12 0)
(-1 2.19954e-12 0)
(-1 -5.14139e-13 0)
(-1 1.28767e-13 0)
(-1 -2.48691e-14 0)
(-1 1.04695e-14 0)
(-1 1.03903e-15 0)
(-1 2.49369e-15 0)
(-1 1.67273e-15 0)
(-1 1.47429e-15 0)
(-1 1.25556e-15 0)
(-1 9.12145e-16 0)
(-1 5.143e-16 0)
(-1 2.07448e-16 0)
(-1 1.29206e-16 0)
(-1 6.96745e-17 0)
(-1 2.90867e-09 0)
(-1 -6.90029e-10 0)
(-1 1.63716e-10 0)
(-1 -3.88354e-11 0)
(-1 9.21831e-12 0)
(-1 -2.18176e-12 0)
(-1 5.22418e-13 0)
(-1 -1.19635e-13 0)
(-1 3.19336e-14 0)
(-1 -4.61814e-15 0)
(-1 3.58659e-15 0)
(-1 1.26227e-15 0)
(-1 1.45153e-15 0)
(-1 1.03947e-15 0)
(-1 7.9181e-16 0)
(-1 5.83604e-16 0)
(-1 3.83781e-16 0)
(-1 2.42227e-16 0)
(-1 6.41611e-17 0)
(-1 -6.62118e-18 0)
(-1 -2.90017e-09 0)
(-1 6.88014e-10 0)
(-1 -1.63232e-10 0)
(-1 3.87274e-11 0)
(-1 -9.1849e-12 0)
(-1 2.18156e-12 0)
(-1 -5.15255e-13 0)
(-1 1.24235e-13 0)
(-1 -2.77826e-14 0)
(-1 8.12108e-15 0)
(-1 -3.97326e-16 0)
(-1 1.49661e-15 0)
(-1 7.76031e-16 0)
(-1 7.49794e-16 0)
(-1 4.66271e-16 0)
(-1 4.0312e-16 0)
(-1 2.44694e-16 0)
(-1 2.31622e-16 0)
(-1 1.31543e-16 0)
(-1 3.97296e-17 0)
(-1 2.89183e-09 0)
(-1 -6.86037e-10 0)
(-1 1.62765e-10 0)
(-1 -3.86143e-11 0)
(-1 9.16062e-12 0)
(-1 -2.17321e-12 0)
(-1 5.15669e-13 0)
(-1 -1.22102e-13 0)
(-1 2.94077e-14 0)
(-1 -6.41828e-15 0)
(-1 2.03077e-15 0)
(-1 -1.18588e-16 0)
(-1 2.83523e-16 0)
(-1 1.6494e-16 0)
(-1 2.10712e-16 0)
(-1 2.30066e-16 0)
(-1 2.23712e-16 0)
(-1 1.85745e-16 0)
(-1 8.97612e-17 0)
(-1 5.49667e-17 0)
(-1 -2.88381e-09 0)
(-1 6.84144e-10 0)
(-1 -1.62318e-10 0)
(-1 3.85065e-11 0)
(-1 -9.13758e-12 0)
(-1 2.16555e-12 0)
(-1 -5.15769e-13 0)
(-1 1.20709e-13 0)
(-1 -2.9838e-14 0)
(-1 6.10662e-15 0)
(-1 -2.30818e-15 0)
(-1 -6.40902e-17 0)
(-1 -3.30186e-16 0)
(-1 -1.43742e-16 0)
(-1 -1.05936e-16 0)
(-1 -8.13339e-18 0)
(-1 1.75317e-16 0)
(-1 1.89186e-16 0)
(-1 5.77574e-17 0)
(-1 2.23458e-17 0)
(-1 2.87616e-09 0)
(-1 -6.82344e-10 0)
(-1 1.61886e-10 0)
(-1 -3.84116e-11 0)
(-1 9.10738e-12 0)
(-1 -2.16575e-12 0)
(-1 5.09434e-13 0)
(-1 -1.24446e-13 0)
(-1 2.67086e-14 0)
(-1 -8.71605e-15 0)
(-1 1.71345e-16 0)
(-1 -1.41731e-15 0)
(-1 -5.10383e-16 0)
(-1 -3.96942e-16 0)
(-1 -3.12906e-16 0)
(-1 -2.68736e-16 0)
(-1 -1.47688e-16 0)
(-1 -5.63265e-17 0)
(-1 2.30869e-17 0)
(-1 1.85017e-17 0)
(-1 -2.86864e-09 0)
(-1 6.80572e-10 0)
(-1 -1.61478e-10 0)
(-1 3.83019e-11 0)
(-1 -9.09576e-12 0)
(-1 2.14998e-12 0)
(-1 -5.16928e-13 0)
(-1 1.17019e-13 0)
(-1 -3.20972e-14 0)
(-1 4.3167e-15 0)
(-1 -3.59508e-15 0)
(-1 -1.19852e-15 0)
(-1 -1.29404e-15 0)
(-1 -8.2939e-16 0)
(-1 -5.56349e-16 0)
(-1 -3.86635e-16 0)
(-1 -3.29755e-16 0)
(-1 -2.26578e-16 0)
(-1 -1.01754e-17 0)
(-1 2.2351e-17 0)
(-1 2.86163e-09 0)
(-1 -6.78931e-10 0)
(-1 1.6107e-10 0)
(-1 -3.82278e-11 0)
(-1 9.05593e-12 0)
(-1 -2.16059e-12 0)
(-1 5.02638e-13 0)
(-1 -1.27145e-13 0)
(-1 2.41056e-14 0)
(-1 -1.01683e-14 0)
(-1 -8.59395e-16 0)
(-1 -2.22169e-15 0)
(-1 -1.25672e-15 0)
(-1 -1.01632e-15 0)
(-1 -6.22378e-16 0)
(-1 -3.65599e-16 0)
(-1 -3.44895e-16 0)
(-1 -1.98468e-16 0)
(-1 -6.76768e-17 0)
(-1 -3.93862e-19 0)
(-1 -2.85438e-09 0)
(-1 6.77223e-10 0)
(-1 -1.60698e-10 0)
(-1 3.8106e-11 0)
(-1 -9.06077e-12 0)
(-1 2.13316e-12 0)
(-1 -5.19165e-13 0)
(-1 1.13466e-13 0)
(-1 -3.40206e-14 0)
(-1 2.89572e-15 0)
(-1 -4.38239e-15 0)
(-1 -1.53055e-15 0)
(-1 -1.39937e-15 0)
(-1 -9.55374e-16 0)
(-1 -7.78165e-16 0)
(-1 -5.60261e-16 0)
(-1 -4.2847e-16 0)
(-1 -3.13125e-16 0)
(-1 -2.49556e-16 0)
(-1 -8.64708e-17 0)
(-1 2.84776e-09 0)
(-1 -6.75687e-10 0)
(-1 1.6028e-10 0)
(-1 -3.8061e-11 0)
(-1 9.00095e-12 0)
(-1 -2.15744e-12 0)
(-1 4.95945e-13 0)
(-1 -1.28706e-13 0)
(-1 2.2926e-14 0)
(-1 -1.07235e-14 0)
(-1 -1.09793e-15 0)
(-1 -2.20769e-15 0)
(-1 -1.2314e-15 0)
(-1 -1.04917e-15 0)
(-1 -8.12315e-16 0)
(-1 -6.63256e-16 0)
(-1 -4.35791e-16 0)
(-1 -3.34419e-16 0)
(-1 -1.98509e-16 0)
(-1 -5.42683e-17 0)
(-1 -2.84033e-09 0)
(-1 6.73928e-10 0)
(-1 -1.5998e-10 0)
(-1 3.79015e-11 0)
(-1 -9.03602e-12 0)
(-1 2.11746e-12 0)
(-1 -5.19769e-13 0)
(-1 1.1226e-13 0)
(-1 -3.39442e-14 0)
(-1 3.26503e-15 0)
(-1 -3.90251e-15 0)
(-1 -1.13571e-15 0)
(-1 -1.27928e-15 0)
(-1 -8.9652e-16 0)
(-1 -6.29912e-16 0)
(-1 -4.70464e-16 0)
(-1 -3.45602e-16 0)
(-1 -2.18349e-16 0)
(-1 -8.66405e-17 0)
(-1 -4.63369e-17 0)
(-1 2.83436e-09 0)
(-1 -6.7265e-10 0)
(-1 1.59352e-10 0)
(-1 -3.78796e-11 0)
(-1 8.93179e-12 0)
(-1 -2.14115e-12 0)
(-1 4.93378e-13 0)
(-1 -1.2505e-13 0)
(-1 2.44115e-14 0)
(-1 -9.14794e-15 0)
(-1 -1.82958e-16 0)
(-1 -1.55364e-15 0)
(-1 -8.02988e-16 0)
(-1 -6.70237e-16 0)
(-1 -5.2752e-16 0)
(-1 -3.35062e-16 0)
(-1 -1.73634e-16 0)
(-1 -6.65439e-17 0)
(-1 -3.9978e-17 0)
(-1 -4.04285e-17 0)
(-1 -2.82738e-09 0)
(-1 6.70204e-10 0)
(-1 -1.59196e-10 0)
(-1 3.77241e-11 0)
(-1 -8.97515e-12 0)
(-1 2.12116e-12 0)
(-1 -5.08883e-13 0)
(-1 1.17931e-13 0)
(-1 -2.98319e-14 0)
(-1 5.85711e-15 0)
(-1 -2.33715e-15 0)
(-1 -7.75137e-17 0)
(-1 -3.87589e-16 0)
(-1 -2.17789e-16 0)
(-1 -2.92903e-16 0)
(-1 -1.90588e-16 0)
(-1 -6.41563e-17 0)
(-1 1.42548e-17 0)
(-1 4.47397e-19 0)
(-1 8.44558e-18 0)
)
;

boundaryField
{
    movingWall
    {
        type            fixedValue;
        value           uniform (-1 -0 -0);
    }
    fixedWalls
    {
        type            calculated;
        value           nonuniform List<vector> 
60
(
(-1 1.17868e-09 0)
(-1 -1.18061e-09 0)
(-1 1.18057e-09 0)
(-1 -1.18e-09 0)
(-1 1.17726e-09 0)
(-1 -1.1741e-09 0)
(-1 1.1705e-09 0)
(-1 -1.16703e-09 0)
(-1 1.16347e-09 0)
(-1 -1.16007e-09 0)
(-1 1.15673e-09 0)
(-1 -1.15352e-09 0)
(-1 1.15047e-09 0)
(-1 -1.14746e-09 0)
(-1 1.14465e-09 0)
(-1 -1.14175e-09 0)
(-1 1.1391e-09 0)
(-1 -1.13613e-09 0)
(-1 1.13374e-09 0)
(-1 -1.13095e-09 0)
(-1 2.88964e-17 0)
(-1 3.45409e-17 0)
(-1 1.75116e-17 0)
(-1 2.48905e-17 0)
(-1 4.3572e-17 0)
(-1 3.53552e-17 0)
(-1 2.7863e-17 0)
(-1 2.78698e-17 0)
(-1 -2.64847e-18 0)
(-1 1.58918e-17 0)
(-1 2.19867e-17 0)
(-1 8.93832e-18 0)
(-1 7.40067e-18 0)
(-1 8.94042e-18 0)
(-1 -1.57545e-19 0)
(-1 -3.45883e-17 0)
(-1 -2.17073e-17 0)
(-1 -1.85347e-17 0)
(-1 -1.61714e-17 0)
(-1 3.37823e-18 0)
(-1 1.17868e-09 0)
(-1 -2.79684e-10 0)
(-1 6.649e-11 0)
(-1 -1.57624e-11 0)
(-1 3.75678e-12 0)
(-1 -8.8736e-13 0)
(-1 2.13753e-13 0)
(-1 -4.92451e-14 0)
(-1 1.27028e-14 0)
(-1 -2.32499e-15 0)
(-1 1.05911e-15 0)
(-1 9.87546e-17 0)
(-1 2.11335e-16 0)
(-1 1.1561e-16 0)
(-1 1.10378e-16 0)
(-1 9.51174e-17 0)
(-1 6.68416e-17 0)
(-1 4.34592e-17 0)
(-1 2.58159e-17 0)
(-1 2.88964e-17 0)
)
;
    }
    frontAndBack
    {
        type            empty;
    }
}


// ************************************************************************* //
