/*--------------------------------*- C++ -*----------------------------------*\
| =========                 |                                                 |
| \\      /  F ield         | OpenFOAM: The Open Source CFD Toolbox           |
|  \\    /   O peration     | Version:  2506                                  |
|   \\  /    A nd           | Website:  www.openfoam.com                      |
|    \\/     M anipulation  |                                                 |
\*---------------------------------------------------------------------------*/
FoamFile
{
    version     2.0;
    format      ascii;
    arch        "LSB;label=32;scalar=64";
    class       volScalarField;
    location    "5";
    object      zeroGradient(epsilon);
}
// * * * * * * * * * * * * * * * * * * * * * * * * * * * * * * * * * * * * * //

dimensions      [0 2 -3 0 0 0 0];

internalField   nonuniform List<scalar> 
400
(
8.76952e-06
8.76948e-06
8.76945e-06
8.76943e-06
8.7694e-06
8.76939e-06
8.76937e-06
8.76935e-06
8.76934e-06
8.76933e-06
8.76932e-06
8.76931e-06
8.76931e-06
8.7693e-06
8.7693e-06
8.76929e-06
8.76929e-06
8.76929e-06
8.76929e-06
8.76929e-06
1.00222e-05
9.7873e-06
9.8063e-06
9.81409e-06
9.82995e-06
9.83805e-06
9.85403e-06
9.8624e-06
9.87849e-06
9.88716e-06
9.90332e-06
9.91233e-06
9.92854e-06
9.93791e-06
9.95418e-06
9.96389e-06
9.98023e-06
9.99028e-06
9.99851e-06
1.00118e-05
1.17647e-05
1.14696e-05
1.14937e-05
1.15036e-05
1.15237e-05
1.15339e-05
1.15541e-05
1.15646e-05
1.15849e-05
1.15957e-05
1.16161e-05
1.16273e-05
1.16477e-05
1.16592e-05
1.16796e-05
1.16915e-05
1.1712e-05
1.17243e-05
1.17346e-05
1.1751e-05
1.33028e-05
1.29535e-05
1.2982e-05
1.29936e-05
1.30173e-05
1.30294e-05
1.30532e-05
1.30656e-05
1.30896e-05
1.31023e-05
1.31264e-05
1.31396e-05
1.31637e-05
1.31773e-05
1.32014e-05
1.32156e-05
1.32397e-05
1.32543e-05
1.32664e-05
1.32859e-05
1.43806e-05
1.39916e-05
1.40232e-05
1.40361e-05
1.40625e-05
1.40758e-05
1.41024e-05
1.41161e-05
1.41428e-05
1.41569e-05
1.41837e-05
1.41984e-05
1.42252e-05
1.42404e-05
1.42672e-05
1.42829e-05
1.43098e-05
1.43261e-05
1.43396e-05
1.43613e-05
1.50468e-05
1.46327e-05
1.46663e-05
1.468e-05
1.4708e-05
1.47223e-05
1.47505e-05
1.47651e-05
1.47934e-05
1.48085e-05
1.48369e-05
1.48526e-05
1.48811e-05
1.48973e-05
1.49258e-05
1.49426e-05
1.49712e-05
1.49885e-05
1.50029e-05
1.5026e-05
1.5438e-05
1.50091e-05
1.50438e-05
1.5058e-05
1.5087e-05
1.51017e-05
1.51309e-05
1.5146e-05
1.51754e-05
1.5191e-05
1.52204e-05
1.52366e-05
1.52661e-05
1.52829e-05
1.53124e-05
1.53298e-05
1.53594e-05
1.53774e-05
1.53923e-05
1.54162e-05
1.56721e-05
1.52343e-05
1.52697e-05
1.52842e-05
1.53138e-05
1.53288e-05
1.53586e-05
1.5374e-05
1.5404e-05
1.54199e-05
1.545e-05
1.54665e-05
1.54966e-05
1.55137e-05
1.55439e-05
1.55616e-05
1.55918e-05
1.56102e-05
1.56254e-05
1.56498e-05
1.58259e-05
1.53823e-05
1.54181e-05
1.54328e-05
1.54628e-05
1.5478e-05
1.55082e-05
1.55238e-05
1.55541e-05
1.55703e-05
1.56007e-05
1.56175e-05
1.5648e-05
1.56653e-05
1.56959e-05
1.57139e-05
1.57445e-05
1.5763e-05
1.57784e-05
1.58032e-05
1.5943e-05
1.54948e-05
1.5531e-05
1.55459e-05
1.55761e-05
1.55915e-05
1.56219e-05
1.56377e-05
1.56684e-05
1.56847e-05
1.57154e-05
1.57323e-05
1.57631e-05
1.57807e-05
1.58115e-05
1.58297e-05
1.58606e-05
1.58793e-05
1.58949e-05
1.59199e-05
1.60466e-05
1.55945e-05
1.5631e-05
1.5646e-05
1.56765e-05
1.56919e-05
1.57227e-05
1.57386e-05
1.57695e-05
1.5786e-05
1.5817e-05
1.5834e-05
1.58651e-05
1.58828e-05
1.59139e-05
1.59322e-05
1.59634e-05
1.59823e-05
1.5998e-05
1.60232e-05
1.61494e-05
1.56934e-05
1.57303e-05
1.57454e-05
1.57761e-05
1.57917e-05
1.58227e-05
1.58388e-05
1.58699e-05
1.58866e-05
1.59178e-05
1.5935e-05
1.59663e-05
1.59842e-05
1.60155e-05
1.6034e-05
1.60655e-05
1.60846e-05
1.61004e-05
1.61258e-05
1.62591e-05
1.5799e-05
1.58361e-05
1.58514e-05
1.58824e-05
1.58981e-05
1.59294e-05
1.59456e-05
1.5977e-05
1.59938e-05
1.60253e-05
1.60427e-05
1.60743e-05
1.60923e-05
1.61239e-05
1.61426e-05
1.61743e-05
1.61936e-05
1.62096e-05
1.62352e-05
1.63807e-05
1.59161e-05
1.59536e-05
1.5969e-05
1.60003e-05
1.60162e-05
1.60478e-05
1.60641e-05
1.60959e-05
1.61128e-05
1.61446e-05
1.61622e-05
1.61941e-05
1.62123e-05
1.62442e-05
1.62631e-05
1.62951e-05
1.63146e-05
1.63307e-05
1.63566e-05
1.65188e-05
1.60489e-05
1.60868e-05
1.61024e-05
1.6134e-05
1.61501e-05
1.6182e-05
1.61986e-05
1.62307e-05
1.62478e-05
1.628e-05
1.62977e-05
1.633e-05
1.63484e-05
1.63807e-05
1.63997e-05
1.64321e-05
1.64518e-05
1.64681e-05
1.64943e-05
1.6676e-05
1.62001e-05
1.62385e-05
1.62543e-05
1.62863e-05
1.63026e-05
1.63349e-05
1.63517e-05
1.63842e-05
1.64015e-05
1.64341e-05
1.64521e-05
1.64847e-05
1.65034e-05
1.65361e-05
1.65554e-05
1.65882e-05
1.66081e-05
1.66246e-05
1.66512e-05
1.68508e-05
1.63682e-05
1.64072e-05
1.64231e-05
1.64556e-05
1.64721e-05
1.65048e-05
1.65218e-05
1.65548e-05
1.65723e-05
1.66054e-05
1.66236e-05
1.66567e-05
1.66756e-05
1.67088e-05
1.67283e-05
1.67616e-05
1.67818e-05
1.67986e-05
1.68255e-05
1.70303e-05
1.65411e-05
1.65805e-05
1.65967e-05
1.66296e-05
1.66464e-05
1.66795e-05
1.66968e-05
1.67301e-05
1.67479e-05
1.67814e-05
1.67999e-05
1.68334e-05
1.68526e-05
1.68862e-05
1.69061e-05
1.69398e-05
1.69603e-05
1.69773e-05
1.70046e-05
1.71852e-05
1.67005e-05
1.67389e-05
1.67545e-05
1.67867e-05
1.68031e-05
1.68356e-05
1.68526e-05
1.68854e-05
1.69031e-05
1.69362e-05
1.69547e-05
1.69879e-05
1.70072e-05
1.70406e-05
1.70608e-05
1.70943e-05
1.71154e-05
1.71323e-05
1.71599e-05
1.72526e-05
1.72526e-05
1.72524e-05
1.72525e-05
1.72523e-05
1.72524e-05
1.72522e-05
1.72524e-05
1.72522e-05
1.72523e-05
1.72522e-05
1.72522e-05
1.72522e-05
1.72522e-05
1.72522e-05
1.72522e-05
1.72522e-05
1.72522e-05
1.72522e-05
1.72522e-05
)
;

boundaryField
{
    movingWall
    {
        type            zeroGradient;
    }
    fixedWalls
    {
        type            zeroGradient;
    }
    frontAndBack
    {
        type            empty;
    }
}


// ************************************************************************* //
