/*--------------------------------*- C++ -*----------------------------------*\
| =========                 |                                                 |
| \\      /  F ield         | OpenFOAM: The Open Source CFD Toolbox           |
|  \\    /   O peration     | Version:  2506                                  |
|   \\  /    A nd           | Website:  www.openfoam.com                      |
|    \\/     M anipulation  |                                                 |
\*---------------------------------------------------------------------------*/
FoamFile
{
    version     2.0;
    format      ascii;
    arch        "LSB;label=32;scalar=64";
    class       volVectorField;
    location    "4.75";
    object      diffU;
}
// * * * * * * * * * * * * * * * * * * * * * * * * * * * * * * * * * * * * * //

dimensions      [0 1 -1 0 0 0 0];

internalField   nonuniform List<vector> 
400
(
(0 0 0)
(1.09651e-11 -7.72477e-09 0)
(3.32578e-12 -5.89067e-09 0)
(6.5703e-12 -6.32646e-09 0)
(5.17897e-12 -6.22301e-09 0)
(5.56477e-12 -6.24763e-09 0)
(5.39213e-12 -6.24179e-09 0)
(5.42211e-12 -6.24318e-09 0)
(5.39835e-12 -6.24286e-09 0)
(5.39646e-12 -6.24294e-09 0)
(5.39091e-12 -6.24292e-09 0)
(5.38858e-12 -6.24292e-09 0)
(5.38647e-12 -6.24292e-09 0)
(5.38514e-12 -6.24292e-09 0)
(5.38369e-12 -6.24292e-09 0)
(5.38325e-12 -6.24292e-09 0)
(5.38258e-12 -6.24292e-09 0)
(5.38214e-12 -6.24292e-09 0)
(5.38192e-12 -6.24292e-09 0)
(5.38192e-12 -6.24292e-09 0)
(1.51738e-11 -1.249e-08 0)
(3.12794e-12 -4.75809e-09 0)
(6.13554e-12 -6.59477e-09 0)
(5.26135e-12 -6.15916e-09 0)
(5.47884e-12 -6.26268e-09 0)
(5.41545e-12 -6.23817e-09 0)
(5.41589e-12 -6.24401e-09 0)
(5.4039e-12 -6.24264e-09 0)
(5.39746e-12 -6.24297e-09 0)
(5.39258e-12 -6.2429e-09 0)
(5.38936e-12 -6.24292e-09 0)
(5.38702e-12 -6.24292e-09 0)
(5.38536e-12 -6.24292e-09 0)
(5.38425e-12 -6.24292e-09 0)
(5.38347e-12 -6.24292e-09 0)
(5.38281e-12 -6.24292e-09 0)
(5.38225e-12 -6.24292e-09 0)
(5.38225e-12 -6.24292e-09 0)
(5.38203e-12 -6.24292e-09 0)
(5.3817e-12 -6.24292e-09 0)
(-2.95077e-11 -3.97676e-12 0)
(1.24114e-11 -7.72451e-09 0)
(2.56706e-12 -5.89108e-09 0)
(5.97999e-12 -6.3263e-09 0)
(5.20362e-12 -6.22301e-09 0)
(5.44942e-12 -6.24758e-09 0)
(5.38358e-12 -6.24177e-09 0)
(5.39946e-12 -6.24317e-09 0)
(5.39135e-12 -6.24284e-09 0)
(5.39013e-12 -6.24293e-09 0)
(5.38769e-12 -6.24291e-09 0)
(5.38591e-12 -6.24292e-09 0)
(5.38469e-12 -6.24292e-09 0)
(5.38358e-12 -6.24292e-09 0)
(5.38303e-12 -6.24292e-09 0)
(5.38269e-12 -6.24292e-09 0)
(5.38203e-12 -6.24292e-09 0)
(5.38203e-12 -6.24292e-09 0)
(5.38192e-12 -6.24292e-09 0)
(5.38203e-12 -6.24292e-09 0)
(4.66226e-11 -1.24705e-08 0)
(-3.02292e-12 -4.76478e-09 0)
(8.50031e-12 -6.59359e-09 0)
(4.63141e-12 -6.15962e-09 0)
(5.57032e-12 -6.26262e-09 0)
(5.32041e-12 -6.23819e-09 0)
(5.40001e-12 -6.244e-09 0)
(5.38247e-12 -6.24264e-09 0)
(5.38802e-12 -6.24297e-09 0)
(5.38602e-12 -6.2429e-09 0)
(5.38558e-12 -6.24292e-09 0)
(5.38469e-12 -6.24292e-09 0)
(5.38447e-12 -6.24292e-09 0)
(5.3838e-12 -6.24292e-09 0)
(5.38358e-12 -6.24292e-09 0)
(5.38303e-12 -6.24292e-09 0)
(5.38258e-12 -6.24292e-09 0)
(5.38236e-12 -6.24292e-09 0)
(5.38225e-12 -6.24292e-09 0)
(5.38203e-12 -6.24292e-09 0)
(-4.06923e-11 -3.26435e-11 0)
(1.45866e-11 -7.71645e-09 0)
(1.81299e-12 -5.89326e-09 0)
(6.14053e-12 -6.32583e-09 0)
(5.13434e-12 -6.2232e-09 0)
(5.43576e-12 -6.24756e-09 0)
(5.35949e-12 -6.24179e-09 0)
(5.38447e-12 -6.24316e-09 0)
(5.37992e-12 -6.24284e-09 0)
(5.38269e-12 -6.24293e-09 0)
(5.38247e-12 -6.24291e-09 0)
(5.38281e-12 -6.24292e-09 0)
(5.38225e-12 -6.24292e-09 0)
(5.38225e-12 -6.24292e-09 0)
(5.38225e-12 -6.24292e-09 0)
(5.38214e-12 -6.24292e-09 0)
(5.38203e-12 -6.24292e-09 0)
(5.3817e-12 -6.24292e-09 0)
(5.38192e-12 -6.24292e-09 0)
(5.38192e-12 -6.24292e-09 0)
(4.95189e-11 -1.24359e-08 0)
(-3.49631e-12 -4.77376e-09 0)
(8.6684e-12 -6.59145e-09 0)
(4.59255e-12 -6.16021e-09 0)
(5.56777e-12 -6.26251e-09 0)
(5.30442e-12 -6.23824e-09 0)
(5.38702e-12 -6.244e-09 0)
(5.37104e-12 -6.24264e-09 0)
(5.3797e-12 -6.24297e-09 0)
(5.3797e-12 -6.2429e-09 0)
(5.38103e-12 -6.24292e-09 0)
(5.38147e-12 -6.24292e-09 0)
(5.3817e-12 -6.24292e-09 0)
(5.38147e-12 -6.24292e-09 0)
(5.38147e-12 -6.24292e-09 0)
(5.38125e-12 -6.24292e-09 0)
(5.38125e-12 -6.24292e-09 0)
(5.38125e-12 -6.24292e-09 0)
(5.38192e-12 -6.24292e-09 0)
(5.38192e-12 -6.24292e-09 0)
(-3.68205e-11 -6.87913e-11 0)
(1.37693e-11 -7.70745e-09 0)
(2.18603e-12 -5.89546e-09 0)
(6.06293e-12 -6.32532e-09 0)
(5.15721e-12 -6.22335e-09 0)
(5.42144e-12 -6.24754e-09 0)
(5.35416e-12 -6.2418e-09 0)
(5.37681e-12 -6.24317e-09 0)
(5.37437e-12 -6.24285e-09 0)
(5.37814e-12 -6.24293e-09 0)
(5.37903e-12 -6.24291e-09 0)
(5.38014e-12 -6.24292e-09 0)
(5.38058e-12 -6.24292e-09 0)
(5.38125e-12 -6.24292e-09 0)
(5.38147e-12 -6.24292e-09 0)
(5.38192e-12 -6.24292e-09 0)
(5.38203e-12 -6.24292e-09 0)
(5.38203e-12 -6.24292e-09 0)
(5.38214e-12 -6.24292e-09 0)
(5.38214e-12 -6.24292e-09 0)
(4.30852e-11 -1.23995e-08 0)
(-2.15272e-12 -4.78261e-09 0)
(8.13827e-12 -6.58934e-09 0)
(4.71978e-12 -6.16073e-09 0)
(5.53058e-12 -6.2624e-09 0)
(5.31108e-12 -6.23828e-09 0)
(5.37947e-12 -6.24401e-09 0)
(5.36704e-12 -6.24265e-09 0)
(5.37459e-12 -6.24298e-09 0)
(5.37548e-12 -6.2429e-09 0)
(5.37792e-12 -6.24292e-09 0)
(5.37881e-12 -6.24292e-09 0)
(5.3797e-12 -6.24292e-09 0)
(5.38058e-12 -6.24292e-09 0)
(5.38081e-12 -6.24292e-09 0)
(5.38125e-12 -6.24292e-09 0)
(5.38147e-12 -6.24292e-09 0)
(5.3817e-12 -6.24292e-09 0)
(5.3817e-12 -6.24292e-09 0)
(5.38192e-12 -6.24292e-09 0)
(-2.89246e-11 -1.03948e-10 0)
(1.21716e-11 -7.69905e-09 0)
(2.83373e-12 -5.89748e-09 0)
(5.92149e-12 -6.32485e-09 0)
(5.20028e-12 -6.22348e-09 0)
(5.40745e-12 -6.24752e-09 0)
(5.35483e-12 -6.24182e-09 0)
(5.37304e-12 -6.24317e-09 0)
(5.37215e-12 -6.24285e-09 0)
(5.37526e-12 -6.24293e-09 0)
(5.37703e-12 -6.24291e-09 0)
(5.37814e-12 -6.24292e-09 0)
(5.37925e-12 -6.24292e-09 0)
(5.37992e-12 -6.24292e-09 0)
(5.38081e-12 -6.24292e-09 0)
(5.38125e-12 -6.24292e-09 0)
(5.3817e-12 -6.24292e-09 0)
(5.38214e-12 -6.24292e-09 0)
(5.38192e-12 -6.24292e-09 0)
(5.38203e-12 -6.24292e-09 0)
(3.51335e-11 -1.23658e-08 0)
(-5.40901e-13 -4.79059e-09 0)
(7.51033e-12 -6.58746e-09 0)
(4.867e-12 -6.16119e-09 0)
(5.49094e-12 -6.2623e-09 0)
(5.32374e-12 -6.23832e-09 0)
(5.3757e-12 -6.24401e-09 0)
(5.36704e-12 -6.24266e-09 0)
(5.37326e-12 -6.24298e-09 0)
(5.37481e-12 -6.2429e-09 0)
(5.37725e-12 -6.24292e-09 0)
(5.37836e-12 -6.24292e-09 0)
(5.37947e-12 -6.24292e-09 0)
(5.38036e-12 -6.24292e-09 0)
(5.38081e-12 -6.24292e-09 0)
(5.38125e-12 -6.24292e-09 0)
(5.38147e-12 -6.24292e-09 0)
(5.3817e-12 -6.24292e-09 0)
(5.38192e-12 -6.24292e-09 0)
(5.38203e-12 -6.24292e-09 0)
(-2.13707e-11 -1.35429e-10 0)
(1.06606e-11 -7.69165e-09 0)
(3.42659e-12 -5.89924e-09 0)
(5.78904e-12 -6.32445e-09 0)
(5.23981e-12 -6.22358e-09 0)
(5.39668e-12 -6.24751e-09 0)
(5.35749e-12 -6.24183e-09 0)
(5.37193e-12 -6.24318e-09 0)
(5.3717e-12 -6.24286e-09 0)
(5.37503e-12 -6.24294e-09 0)
(5.37681e-12 -6.24292e-09 0)
(5.37859e-12 -6.24292e-09 0)
(5.37947e-12 -6.24292e-09 0)
(5.38058e-12 -6.24292e-09 0)
(5.38081e-12 -6.24292e-09 0)
(5.38125e-12 -6.24292e-09 0)
(5.38147e-12 -6.24292e-09 0)
(5.38147e-12 -6.24292e-09 0)
(5.3817e-12 -6.24292e-09 0)
(5.38192e-12 -6.24292e-09 0)
(2.83965e-11 -1.23362e-08 0)
(8.02913e-13 -4.79752e-09 0)
(6.9913e-12 -6.58582e-09 0)
(4.98579e-12 -6.16158e-09 0)
(5.45819e-12 -6.26222e-09 0)
(5.33418e-12 -6.23835e-09 0)
(5.3737e-12 -6.24401e-09 0)
(5.36771e-12 -6.24267e-09 0)
(5.37281e-12 -6.24299e-09 0)
(5.37459e-12 -6.24291e-09 0)
(5.37637e-12 -6.24293e-09 0)
(5.3777e-12 -6.24292e-09 0)
(5.37881e-12 -6.24292e-09 0)
(5.37992e-12 -6.24292e-09 0)
(5.38081e-12 -6.24292e-09 0)
(5.38103e-12 -6.24292e-09 0)
(5.3817e-12 -6.24292e-09 0)
(5.38192e-12 -6.24292e-09 0)
(5.38214e-12 -6.24292e-09 0)
(5.38203e-12 -6.24292e-09 0)
(-1.56812e-11 -1.62701e-10 0)
(9.5346e-12 -7.68527e-09 0)
(3.85691e-12 -5.90075e-09 0)
(5.69156e-12 -6.3241e-09 0)
(5.26756e-12 -6.22367e-09 0)
(5.38958e-12 -6.2475e-09 0)
(5.36082e-12 -6.24184e-09 0)
(5.37281e-12 -6.24318e-09 0)
(5.37326e-12 -6.24287e-09 0)
(5.37592e-12 -6.24294e-09 0)
(5.37748e-12 -6.24292e-09 0)
(5.37836e-12 -6.24292e-09 0)
(5.37903e-12 -6.24292e-09 0)
(5.3797e-12 -6.24292e-09 0)
(5.38058e-12 -6.24292e-09 0)
(5.38103e-12 -6.24292e-09 0)
(5.38125e-12 -6.24292e-09 0)
(5.3817e-12 -6.24292e-09 0)
(5.3817e-12 -6.24292e-09 0)
(5.38192e-12 -6.24292e-09 0)
(2.36204e-11 -1.23107e-08 0)
(1.73817e-12 -4.80349e-09 0)
(6.62814e-12 -6.58442e-09 0)
(5.06462e-12 -6.16192e-09 0)
(5.43554e-12 -6.26215e-09 0)
(5.34173e-12 -6.23838e-09 0)
(5.37415e-12 -6.24401e-09 0)
(5.37037e-12 -6.24267e-09 0)
(5.37503e-12 -6.24299e-09 0)
(5.37637e-12 -6.24291e-09 0)
(5.3777e-12 -6.24293e-09 0)
(5.37881e-12 -6.24292e-09 0)
(5.38036e-12 -6.24292e-09 0)
(5.38103e-12 -6.24292e-09 0)
(5.38125e-12 -6.24292e-09 0)
(5.38147e-12 -6.24292e-09 0)
(5.3817e-12 -6.24292e-09 0)
(5.38203e-12 -6.24292e-09 0)
(5.38192e-12 -6.24292e-09 0)
(5.38192e-12 -6.24292e-09 0)
(-1.20586e-11 -1.86307e-10 0)
(8.81839e-12 -7.67975e-09 0)
(4.11737e-12 -5.90207e-09 0)
(5.62905e-12 -6.32381e-09 0)
(5.28511e-12 -6.22376e-09 0)
(5.3878e-12 -6.24749e-09 0)
(5.36549e-12 -6.24186e-09 0)
(5.37614e-12 -6.24319e-09 0)
(5.37681e-12 -6.24287e-09 0)
(5.37881e-12 -6.24294e-09 0)
(5.3797e-12 -6.24292e-09 0)
(5.38036e-12 -6.24293e-09 0)
(5.38058e-12 -6.24292e-09 0)
(5.38125e-12 -6.24292e-09 0)
(5.38125e-12 -6.24292e-09 0)
(5.3817e-12 -6.24292e-09 0)
(5.3817e-12 -6.24292e-09 0)
(5.3817e-12 -6.24292e-09 0)
(5.38192e-12 -6.24292e-09 0)
(5.38192e-12 -6.24292e-09 0)
(2.04567e-11 -1.22882e-08 0)
(2.34945e-12 -4.80876e-09 0)
(6.38312e-12 -6.5832e-09 0)
(5.11724e-12 -6.16224e-09 0)
(5.42388e-12 -6.2621e-09 0)
(5.35194e-12 -6.2384e-09 0)
(5.37881e-12 -6.24402e-09 0)
(5.37637e-12 -6.24268e-09 0)
(5.37925e-12 -6.24299e-09 0)
(5.3797e-12 -6.24292e-09 0)
(5.38081e-12 -6.24293e-09 0)
(5.38081e-12 -6.24293e-09 0)
(5.38147e-12 -6.24293e-09 0)
(5.38147e-12 -6.24292e-09 0)
(5.38192e-12 -6.24292e-09 0)
(5.3817e-12 -6.24292e-09 0)
(5.38192e-12 -6.24292e-09 0)
(5.38203e-12 -6.24292e-09 0)
(5.38192e-12 -6.24292e-09 0)
(5.38192e-12 -6.24292e-09 0)
(-1.02744e-11 -2.07441e-10 0)
(8.44902e-12 -7.6748e-09 0)
(4.23839e-12 -5.90329e-09 0)
(5.60252e-12 -6.32356e-09 0)
(5.30065e-12 -6.22385e-09 0)
(5.39679e-12 -6.24749e-09 0)
(5.37659e-12 -6.24187e-09 0)
(5.38436e-12 -6.24319e-09 0)
(5.38292e-12 -6.24287e-09 0)
(5.38325e-12 -6.24294e-09 0)
(5.38292e-12 -6.24292e-09 0)
(5.38247e-12 -6.24293e-09 0)
(5.38225e-12 -6.24293e-09 0)
(5.38192e-12 -6.24292e-09 0)
(5.3817e-12 -6.24292e-09 0)
(5.38192e-12 -6.24292e-09 0)
(5.38192e-12 -6.24292e-09 0)
(5.38192e-12 -6.24292e-09 0)
(5.38192e-12 -6.24292e-09 0)
(5.38192e-12 -6.24292e-09 0)
(1.77197e-11 -1.22673e-08 0)
(2.88924e-12 -4.81369e-09 0)
(6.16485e-12 -6.58215e-09 0)
(5.18119e-12 -6.16255e-09 0)
(5.42888e-12 -6.26207e-09 0)
(5.37748e-12 -6.23843e-09 0)
(5.39357e-12 -6.24402e-09 0)
(5.3888e-12 -6.24268e-09 0)
(5.38791e-12 -6.24299e-09 0)
(5.38636e-12 -6.24291e-09 0)
(5.38514e-12 -6.24293e-09 0)
(5.38436e-12 -6.24292e-09 0)
(5.38369e-12 -6.24292e-09 0)
(5.38292e-12 -6.24292e-09 0)
(5.38225e-12 -6.24292e-09 0)
(5.38214e-12 -6.24292e-09 0)
(5.3817e-12 -6.24292e-09 0)
(5.3817e-12 -6.24292e-09 0)
(5.38192e-12 -6.24292e-09 0)
(5.38214e-12 -6.24292e-09 0)
(-1.06886e-11 -2.2675e-10 0)
(8.40883e-12 -7.67046e-09 0)
(4.19598e-12 -5.90471e-09 0)
(5.68956e-12 -6.32328e-09 0)
(5.33618e-12 -6.22396e-09 0)
(5.43565e-12 -6.24746e-09 0)
(5.39446e-12 -6.24187e-09 0)
(5.3979e-12 -6.24319e-09 0)
(5.39069e-12 -6.24287e-09 0)
(5.38802e-12 -6.24294e-09 0)
(5.3858e-12 -6.24292e-09 0)
(5.38436e-12 -6.24293e-09 0)
(5.38358e-12 -6.24292e-09 0)
(5.38303e-12 -6.24292e-09 0)
(5.38269e-12 -6.24292e-09 0)
(5.38225e-12 -6.24292e-09 0)
(5.38203e-12 -6.24292e-09 0)
(5.3817e-12 -6.24292e-09 0)
(5.38192e-12 -6.24292e-09 0)
(5.38192e-12 -6.24292e-09 0)
(4.60587e-12 -1.22489e-08 0)
(9.75231e-12 -4.81884e-09 0)
(3.58846e-12 -6.58114e-09 0)
(6.385e-12 -6.16275e-09 0)
(5.16454e-12 -6.26199e-09 0)
(5.52902e-12 -6.23841e-09 0)
(5.3777e-12 -6.244e-09 0)
(5.40967e-12 -6.24267e-09 0)
(5.39069e-12 -6.24299e-09 0)
(5.39047e-12 -6.24291e-09 0)
(5.38691e-12 -6.24293e-09 0)
(5.38547e-12 -6.24292e-09 0)
(5.38392e-12 -6.24292e-09 0)
(5.38336e-12 -6.24292e-09 0)
(5.38325e-12 -6.24292e-09 0)
(5.38269e-12 -6.24292e-09 0)
(5.38247e-12 -6.24292e-09 0)
(5.38236e-12 -6.24292e-09 0)
(5.38214e-12 -6.24292e-09 0)
(5.38225e-12 -6.24292e-09 0)
)
;

boundaryField
{
    movingWall
    {
        type            calculated;
        value           uniform (5.38192e-12 -6.24292e-09 0);
    }
    fixedWalls
    {
        type            calculated;
        value           uniform (5.38192e-12 -6.24292e-09 0);
    }
    frontAndBack
    {
        type            empty;
    }
}


// ************************************************************************* //
