/*--------------------------------*- C++ -*----------------------------------*\
| =========                 |                                                 |
| \\      /  F ield         | OpenFOAM: The Open Source CFD Toolbox           |
|  \\    /   O peration     | Version:  2506                                  |
|   \\  /    A nd           | Website:  www.openfoam.com                      |
|    \\/     M anipulation  |                                                 |
\*---------------------------------------------------------------------------*/
FoamFile
{
    version     2.0;
    format      ascii;
    arch        "LSB;label=32;scalar=64";
    class       volScalarField;
    location    "4.75";
    object      divPhi;
}
// * * * * * * * * * * * * * * * * * * * * * * * * * * * * * * * * * * * * * //

dimensions      [0 0 -1 0 0 0 0];

internalField   nonuniform List<scalar> 
400
(
-8.13152e-14
9.29812e-15
-1.30711e-14
1.51683e-14
-1.26708e-14
1.25337e-14
-1.33301e-14
-4.54319e-16
1.07574e-14
-5.66381e-15
-8.26566e-15
-1.10633e-15
-2.89741e-15
1.41519e-14
-1.03029e-14
9.37515e-15
1.73997e-15
-1.60848e-14
2.30995e-14
0
0
-7.80706e-15
6.17923e-17
-4.08969e-15
-2.12514e-14
2.89307e-14
-2.82338e-15
1.58345e-15
9.71504e-15
-5.23759e-15
-1.53364e-14
1.21146e-14
-1.08859e-14
8.61683e-15
-2.24838e-14
2.27174e-14
-4.31127e-15
9.46506e-15
-1.5721e-15
0
0
-9.80314e-15
-1.15718e-14
1.3107e-14
-1.21597e-14
-1.31399e-14
2.0753e-15
-1.66737e-14
2.00276e-15
-5.12095e-15
-2.72832e-15
2.30809e-14
1.92464e-14
-9.97525e-15
9.21514e-15
-1.46533e-15
1.97113e-15
8.49413e-15
2.45694e-14
-2.71051e-14
0
2.90586e-15
-5.74815e-15
6.9391e-15
-3.84513e-14
4.1341e-15
-8.74316e-15
-3.93968e-15
1.18381e-14
2.0546e-14
-2.26451e-14
1.1778e-14
-1.40138e-16
-2.65269e-14
1.92136e-14
-3.59152e-15
-6.32741e-15
1.87691e-14
6.51234e-15
2.71051e-14
2.71051e-14
-6.21148e-15
2.17678e-14
-6.16443e-16
-1.87278e-15
-9.60419e-15
-2.23342e-14
-4.60753e-15
1.33529e-14
1.25285e-14
-2.18832e-14
2.98685e-14
-7.48625e-15
-7.95596e-15
9.62507e-15
-2.84782e-15
-2.52679e-14
1.62934e-14
-1.48965e-14
2.71051e-14
0
-1.07094e-14
3.03593e-16
-3.38894e-15
2.29233e-14
-3.23966e-14
2.04064e-16
-1.82328e-14
2.78105e-14
1.98688e-14
-2.37845e-14
1.86602e-14
-3.01679e-14
-2.45873e-14
2.25349e-14
3.92293e-15
-1.29876e-14
-3.50745e-14
3.56202e-14
-2.71051e-14
0
-1.5196e-14
-3.55173e-15
-1.41256e-14
3.46387e-15
1.87132e-15
-9.24785e-15
1.43118e-14
-5.26133e-15
9.90985e-15
1.22938e-14
-1.03099e-14
3.57756e-15
6.74544e-15
-5.57959e-16
-2.41919e-14
-1.33316e-14
-2.27939e-15
2.82603e-14
-2.71051e-14
-2.71051e-14
3.25501e-14
-2.53016e-14
9.42279e-15
-1.27529e-14
2.94295e-14
-3.13835e-14
-1.71082e-15
-2.34798e-14
-2.7742e-15
3.38479e-14
-3.23232e-14
-2.61066e-15
1.29223e-14
3.45078e-15
-1.14097e-14
-2.91623e-15
1.24056e-15
-1.33904e-14
5.42101e-14
0
1.80177e-14
3.15512e-14
6.21112e-15
5.2194e-15
1.27466e-14
-1.60505e-14
1.18767e-14
-8.53526e-15
4.66605e-15
2.79577e-14
-2.74783e-14
1.26633e-14
-1.84615e-15
3.02292e-14
-1.53627e-14
5.08284e-15
3.79499e-15
-2.26789e-14
0
-2.71051e-14
6.22145e-15
-1.69109e-14
-2.87578e-15
2.60789e-14
1.21915e-15
-8.27273e-15
2.90842e-14
-1.94786e-14
-2.02254e-15
4.69143e-15
8.83569e-15
5.49971e-15
7.8866e-15
-1.29301e-14
4.83212e-14
9.76843e-15
-1.52599e-14
-1.66276e-15
0
0
-1.5742e-16
-5.77533e-15
1.14156e-14
8.62832e-15
-4.13249e-15
-2.70063e-15
6.00361e-15
-1.83197e-14
2.84259e-14
6.05617e-15
1.16396e-14
-4.01433e-15
1.62186e-14
-1.30859e-14
9.3241e-16
-5.97158e-15
2.39781e-14
-6.74946e-15
0
0
1.50945e-15
-2.03059e-14
1.78193e-14
1.08281e-14
-2.41677e-14
-6.92054e-15
-4.99274e-15
-3.40384e-15
5.55814e-15
9.78221e-15
1.07069e-14
-1.92143e-14
-2.12281e-14
1.62122e-14
-6.00393e-15
-8.84825e-15
3.50976e-15
-1.31457e-14
-2.71051e-14
0
1.90781e-14
7.55596e-15
-1.19715e-14
1.36895e-14
-5.56317e-16
-1.76365e-14
-9.74813e-15
6.63399e-15
3.37079e-14
-1.64669e-15
7.95409e-15
9.28432e-15
3.49107e-14
-1.68909e-14
-7.36339e-16
-2.64366e-14
2.14619e-14
-2.54106e-14
2.71051e-14
0
-1.18787e-14
1.67039e-14
-1.52058e-14
-1.48653e-14
-4.01159e-15
2.20622e-15
-6.79645e-15
2.11667e-14
-1.59497e-14
8.38764e-15
-6.30805e-16
2.56776e-15
1.63026e-14
-1.43039e-14
1.22305e-15
-7.46144e-15
4.82539e-15
-2.08391e-15
0
2.71051e-14
-1.20228e-14
-4.70724e-14
3.35376e-14
-3.43546e-15
-1.36035e-15
-1.14111e-14
3.48844e-15
-1.0724e-16
-4.37264e-15
-5.3985e-15
-3.46617e-15
-3.74504e-15
-3.18428e-15
4.99121e-15
-1.67568e-14
-1.50278e-14
1.73172e-14
-1.15844e-14
0
0
-4.31058e-15
1.4722e-15
1.79829e-14
-1.71044e-15
1.33892e-14
-2.0016e-14
3.33743e-14
-1.25715e-14
3.35272e-15
-1.71709e-14
-7.5837e-15
-1.9906e-14
2.33428e-14
-1.45652e-14
1.47004e-14
-8.11855e-15
-4.43723e-15
-3.52791e-16
0
0
-1.89845e-14
-5.79879e-15
-6.30098e-15
8.05184e-15
1.44225e-14
-1.99215e-15
1.24007e-14
-1.9176e-14
2.73336e-15
-6.8022e-15
2.33613e-14
-2.40996e-15
-7.90208e-15
2.65594e-14
-1.39945e-14
-8.53862e-15
-2.25606e-14
2.50233e-14
-2.71051e-14
-2.71051e-14
1.87467e-14
-2.21911e-14
-2.54775e-15
2.75332e-14
-1.1027e-14
8.70471e-15
3.23036e-14
-8.86351e-15
-3.21762e-15
-1.27942e-14
1.09279e-15
6.30207e-15
-1.46302e-14
-1.83167e-14
1.94418e-14
5.70817e-15
-1.10502e-14
1.3544e-14
0
0
-2.01037e-14
1.55906e-14
-8.75032e-15
9.74502e-15
-2.88864e-14
2.03033e-14
-2.61717e-14
-1.30405e-14
-1.03521e-16
1.48396e-15
2.25086e-15
3.119e-14
5.53089e-15
-1.04356e-14
-9.30837e-15
3.20923e-14
-1.14887e-14
1.95337e-14
0
0
2.71051e-14
0
0
0
0
0
2.71051e-14
0
0
-2.71051e-14
0
0
0
0
0
0
0
0
0
)
;

boundaryField
{
    movingWall
    {
        type            extrapolatedCalculated;
        value           nonuniform List<scalar> 
20
(
0
2.71051e-14
0
0
0
0
0
2.71051e-14
0
0
-2.71051e-14
0
0
0
0
0
0
0
0
0
)
;
    }
    fixedWalls
    {
        type            extrapolatedCalculated;
        value           nonuniform List<scalar> 
60
(
-8.13152e-14
0
0
0
2.71051e-14
0
0
-2.71051e-14
0
-2.71051e-14
0
0
0
0
2.71051e-14
0
0
-2.71051e-14
0
0
0
0
-2.71051e-14
2.71051e-14
2.71051e-14
-2.71051e-14
-2.71051e-14
5.42101e-14
0
0
0
-2.71051e-14
2.71051e-14
0
0
0
-2.71051e-14
0
0
0
-8.13152e-14
9.29812e-15
-1.30711e-14
1.51683e-14
-1.26708e-14
1.25337e-14
-1.33301e-14
-4.54319e-16
1.07574e-14
-5.66381e-15
-8.26566e-15
-1.10633e-15
-2.89741e-15
1.41519e-14
-1.03029e-14
9.37515e-15
1.73997e-15
-1.60848e-14
2.30995e-14
0
)
;
    }
    frontAndBack
    {
        type            empty;
    }
}


// ************************************************************************* //
