/*--------------------------------*- C++ -*----------------------------------*\
| =========                 |                                                 |
| \\      /  F ield         | OpenFOAM: The Open Source CFD Toolbox           |
|  \\    /   O peration     | Version:  2506                                  |
|   \\  /    A nd           | Website:  www.openfoam.com                      |
|    \\/     M anipulation  |                                                 |
\*---------------------------------------------------------------------------*/
FoamFile
{
    version     2.0;
    format      ascii;
    arch        "LSB;label=32;scalar=64";
    class       volScalarField;
    location    "4.75";
    object      divU;
}
// * * * * * * * * * * * * * * * * * * * * * * * * * * * * * * * * * * * * * //

dimensions      [0 0 -1 0 0 0 0];

internalField   nonuniform List<scalar> 
400
(
-3.93159e-10
6.30221e-10
-3.98596e-10
2.08828e-10
-8.49905e-11
2.60377e-11
-9.90728e-12
2.62439e-12
-9.90611e-13
1.92887e-13
-1.08558e-13
4.4496e-15
1.64003e-14
-5.1469e-14
-1.53279e-14
1.4796e-14
-9.9563e-15
1.04853e-14
1.07474e-14
0
3.56133e-10
-8.77796e-10
1.71541e-10
-5.0003e-11
1.56655e-11
-1.43422e-12
7.49468e-13
-9.78665e-14
-3.02424e-14
-3.82123e-14
1.93518e-14
-3.2922e-15
-7.88621e-15
1.25251e-14
2.82717e-14
-1.14075e-14
-2.77355e-14
6.0043e-14
-1.49734e-14
0
-8.3405e-10
2.53934e-09
-5.24806e-10
2.17171e-10
-4.70032e-11
1.61019e-11
-4.05026e-12
1.45941e-12
-3.17524e-13
9.09125e-14
-5.86938e-14
-1.40442e-15
-3.18543e-14
3.19114e-14
7.82221e-15
-3.06691e-14
2.0515e-15
1.30554e-14
5.60634e-14
0
4.16876e-10
-3.00553e-09
5.48241e-10
-2.45973e-10
5.02513e-11
-1.49636e-11
4.63577e-12
-9.89159e-13
4.01866e-13
-5.31569e-14
2.06315e-14
3.72395e-14
6.77749e-15
1.86327e-14
3.30277e-14
-3.78696e-14
-9.51558e-15
6.15215e-15
2.82836e-14
-5.42101e-14
-2.33456e-10
3.35256e-09
-6.30316e-10
2.73604e-10
-5.9623e-11
1.73341e-11
-5.30109e-12
1.33931e-12
-3.71741e-13
1.78365e-13
-3.18735e-14
1.36025e-14
-4.72936e-14
3.36231e-14
5.34362e-14
2.73851e-14
-3.56087e-14
1.38934e-14
2.59899e-16
0
-8.89046e-11
-3.18553e-09
5.88304e-10
-2.59231e-10
5.59067e-11
-1.63897e-11
4.85283e-12
-1.21393e-12
4.45976e-13
-9.53507e-14
9.08992e-15
-2.99516e-14
-1.19382e-14
1.05718e-14
-5.17784e-14
-5.31876e-15
-3.40383e-14
3.35134e-15
5.16492e-14
0
2.64762e-10
3.01518e-09
-5.60394e-10
2.44421e-10
-5.34178e-11
1.54515e-11
-4.69459e-12
1.11076e-12
-2.63833e-13
8.54707e-14
3.18172e-14
-1.0979e-14
4.02691e-15
6.22829e-14
-2.29895e-14
3.3282e-14
-3.65694e-14
8.03458e-15
-8.84885e-15
-5.42101e-14
-4.9876e-10
-2.65457e-09
4.85839e-10
-2.14237e-10
4.64957e-11
-1.34548e-11
4.03599e-12
-1.02962e-12
2.76751e-13
-6.26443e-14
6.69665e-14
-6.14057e-14
3.07582e-14
2.89988e-14
-5.46976e-14
4.20317e-14
-4.97013e-14
1.54549e-14
4.92563e-14
2.71051e-14
6.16613e-10
2.37805e-09
-4.36357e-10
1.9091e-10
-4.17329e-11
1.19904e-11
-3.69758e-12
9.20721e-13
-2.62373e-13
6.96323e-14
2.18658e-14
-3.35667e-14
-4.70778e-14
3.88789e-14
1.45043e-15
1.68265e-14
2.65154e-14
-5.24637e-15
-3.3366e-14
0
-7.65284e-10
-2.02184e-09
3.64551e-10
-1.61324e-10
3.5069e-11
-1.00577e-11
3.05141e-12
-8.00056e-13
2.00668e-13
-3.24909e-14
6.47334e-14
-9.4706e-14
3.41002e-14
6.60613e-15
-8.77926e-15
4.47161e-14
-4.63924e-14
4.72742e-14
2.01455e-15
-5.42101e-14
8.07351e-10
1.78696e-09
-3.23892e-10
1.4199e-10
-3.10476e-11
8.83886e-12
-2.72904e-12
7.1782e-13
-1.87294e-13
3.54189e-14
1.56296e-14
-1.90069e-14
-3.20869e-14
1.03535e-14
-1.53739e-14
-3.65179e-15
2.86062e-14
-1.43922e-14
-2.83715e-14
2.71051e-14
-8.83625e-10
-1.50306e-09
2.66737e-10
-1.1868e-10
2.56535e-11
-7.29109e-12
2.20341e-12
-5.71674e-13
1.11852e-13
-3.65037e-14
4.67678e-15
3.36758e-14
1.87197e-14
3.92325e-14
-8.51068e-15
-3.52283e-14
3.40734e-14
6.34513e-14
-2.28762e-14
-2.71051e-14
8.61263e-10
1.35673e-09
-2.44112e-10
1.06972e-10
-2.34082e-11
6.59358e-12
-2.01772e-12
5.03105e-13
-1.29632e-13
2.07521e-14
1.12995e-14
-2.46994e-14
-3.2545e-14
7.29787e-15
1.04409e-14
-2.02325e-14
1.17788e-15
-1.71677e-15
3.56192e-14
0
-9.01108e-10
-1.14729e-09
2.00616e-10
-8.98563e-11
1.9246e-11
-5.44072e-12
1.59361e-12
-4.05507e-13
1.15596e-13
-5.48277e-14
2.4164e-14
7.91688e-14
6.94137e-14
-6.39098e-14
4.68538e-14
-2.62014e-14
1.55577e-14
-2.63657e-14
-5.74946e-15
0
8.46166e-10
1.09014e-09
-1.96585e-10
8.56209e-11
-1.88993e-11
5.28053e-12
-1.63343e-12
4.56583e-13
-6.89841e-14
3.90528e-14
-2.45936e-15
-6.64671e-14
-3.58515e-14
-2.34131e-14
-2.49984e-15
-1.2876e-14
-3.96299e-14
4.81685e-14
-5.00277e-15
0
-9.09158e-10
-9.12292e-10
1.55084e-10
-7.07952e-11
1.45968e-11
-4.20221e-12
1.23446e-12
-2.14156e-13
3.91959e-14
7.61424e-15
5.00304e-14
-3.92597e-14
5.31539e-14
-2.24425e-15
2.12847e-14
-4.05359e-14
-6.42425e-15
-2.93484e-14
-3.80604e-16
0
8.33643e-10
9.58475e-10
-1.79899e-10
7.50462e-11
-1.75488e-11
5.10109e-12
-1.39585e-12
4.4006e-13
-5.91712e-14
5.69916e-14
-2.28383e-14
-3.028e-14
1.36185e-15
2.93946e-15
9.02702e-15
-5.00563e-15
1.02265e-15
1.33008e-15
-3.60051e-15
-2.71051e-14
-9.46427e-10
-7.21015e-10
8.75327e-11
-4.60267e-11
8.24201e-12
-7.61017e-13
6.60761e-13
1.25971e-13
3.48363e-14
4.01045e-14
-1.57894e-14
1.58259e-14
-2.19718e-14
-2.10951e-14
6.45169e-15
-1.2103e-14
-2.7493e-14
5.09528e-14
1.46399e-14
-2.71051e-14
5.3912e-10
9.73783e-10
-1.70695e-10
9.39163e-11
-1.76874e-11
7.41923e-12
-2.05249e-12
6.55353e-13
-2.47607e-13
2.28438e-14
-4.74898e-14
7.21861e-15
1.68356e-14
1.36198e-14
1.39135e-14
-6.1138e-15
-2.00853e-14
1.10975e-14
-5.10094e-15
2.71051e-14
-6.61987e-10
2.42943e-10
-3.36591e-10
1.75993e-10
-7.45931e-11
2.40422e-11
-8.78204e-12
2.52077e-12
-8.67362e-13
1.89735e-13
-8.13152e-14
0
-5.42101e-14
2.71051e-14
0
-2.71051e-14
0
2.71051e-14
2.71051e-14
-5.42101e-14
)
;

boundaryField
{
    movingWall
    {
        type            extrapolatedCalculated;
        value           nonuniform List<scalar> 
20
(
-6.61987e-10
2.42943e-10
-3.36591e-10
1.75993e-10
-7.45931e-11
2.40422e-11
-8.78204e-12
2.52077e-12
-8.67362e-13
1.89735e-13
-8.13152e-14
0
-5.42101e-14
2.71051e-14
0
-2.71051e-14
0
2.71051e-14
2.71051e-14
-5.42101e-14
)
;
    }
    fixedWalls
    {
        type            extrapolatedCalculated;
        value           nonuniform List<scalar> 
60
(
-3.93159e-10
3.56133e-10
-8.3405e-10
4.16876e-10
-2.33456e-10
-8.89046e-11
2.64762e-10
-4.9876e-10
6.16613e-10
-7.65284e-10
8.07351e-10
-8.83625e-10
8.61263e-10
-9.01108e-10
8.46166e-10
-9.09158e-10
8.33643e-10
-9.46427e-10
5.3912e-10
-6.61987e-10
0
0
0
-5.42101e-14
0
0
-5.42101e-14
2.71051e-14
0
-5.42101e-14
2.71051e-14
-2.71051e-14
0
0
0
0
-2.71051e-14
-2.71051e-14
2.71051e-14
-5.42101e-14
-3.93159e-10
6.30221e-10
-3.98596e-10
2.08828e-10
-8.49905e-11
2.60377e-11
-9.90728e-12
2.62439e-12
-9.90611e-13
1.92887e-13
-1.08558e-13
4.4496e-15
1.64003e-14
-5.1469e-14
-1.53279e-14
1.4796e-14
-9.9563e-15
1.04853e-14
1.07474e-14
0
)
;
    }
    frontAndBack
    {
        type            empty;
    }
}


// ************************************************************************* //
