/*--------------------------------*- C++ -*----------------------------------*\
| =========                 |                                                 |
| \\      /  F ield         | OpenFOAM: The Open Source CFD Toolbox           |
|  \\    /   O peration     | Version:  2506                                  |
|   \\  /    A nd           | Website:  www.openfoam.com                      |
|    \\/     M anipulation  |                                                 |
\*---------------------------------------------------------------------------*/
FoamFile
{
    version     2.0;
    format      ascii;
    arch        "LSB;label=32;scalar=64";
    class       volScalarField;
    location    "4.75";
    object      enstrophyField;
}
// * * * * * * * * * * * * * * * * * * * * * * * * * * * * * * * * * * * * * //

dimensions      [0 0 -2 0 0 0 0];

internalField   nonuniform List<scalar> 
400
(
1.13129e-13
1.73696e-13
9.79471e-15
5.55834e-16
3.11532e-17
1.80357e-18
9.67491e-20
6.35743e-21
2.34238e-22
3.8166e-23
6.45766e-26
1.25383e-24
2.91231e-25
1.88047e-25
6.40313e-26
2.72474e-26
7.54109e-27
2.73726e-27
5.2182e-29
9.43214e-29
1.11993e-13
1.73682e-13
9.80423e-15
5.53399e-16
3.12377e-17
1.76334e-18
9.95206e-20
5.61621e-21
3.17879e-22
1.77589e-23
1.05904e-24
5.31911e-26
3.10261e-27
7.77579e-28
6.72076e-28
1.31721e-29
5.07886e-29
8.3361e-28
9.91359e-28
5.80365e-28
1.11671e-13
1.72928e-13
9.742e-15
5.48791e-16
3.09125e-17
1.74179e-18
9.80184e-20
5.53539e-21
3.09192e-22
1.8439e-23
8.45711e-25
1.06639e-25
4.52628e-27
9.63311e-27
7.53933e-27
8.73705e-27
2.74935e-27
1.50298e-27
3.8004e-27
2.38224e-27
1.12253e-13
1.7256e-13
9.71745e-15
5.47183e-16
3.08118e-17
1.7348e-18
9.77211e-20
5.49756e-21
3.10871e-22
1.72329e-23
1.0866e-24
2.3677e-26
1.01659e-26
2.14291e-27
2.83585e-27
2.00448e-27
4.89681e-27
1.44678e-27
4.38389e-27
1.99839e-27
1.12047e-13
1.71706e-13
9.66677e-15
5.44181e-16
3.06339e-17
1.72476e-18
9.70699e-20
5.47259e-21
3.05845e-22
1.78859e-23
9.08195e-25
8.87044e-26
9.10271e-28
1.3951e-28
1.05402e-27
2.81125e-27
2.78195e-29
5.27967e-29
7.02327e-28
1.62114e-27
1.11756e-13
1.70837e-13
9.6164e-15
5.41257e-16
3.04662e-17
1.71457e-18
9.65821e-20
5.41845e-21
3.09766e-22
1.65405e-23
1.22729e-24
2.95607e-26
1.71639e-26
4.94086e-27
3.14079e-27
6.03001e-27
8.36844e-27
9.38965e-27
5.17211e-27
3.96741e-27
1.11205e-13
1.69829e-13
9.55877e-15
5.37973e-16
3.02772e-17
1.70407e-18
9.58673e-20
5.406e-21
3.02568e-22
1.73481e-23
9.26237e-25
5.96824e-26
1.99526e-27
2.88486e-27
1.01494e-27
1.0295e-26
8.84575e-27
1.22846e-26
4.78244e-28
1.25649e-27
1.10644e-13
1.6888e-13
9.50504e-15
5.34921e-16
3.01048e-17
1.6942e-18
9.53586e-20
5.3567e-21
3.05125e-22
1.68578e-23
1.06216e-24
4.22233e-26
7.86683e-27
1.38752e-29
7.13678e-27
1.78939e-27
3.35982e-27
3.74842e-27
1.2368e-27
4.8124e-28
1.10018e-13
1.67918e-13
9.4507e-15
5.31862e-16
2.9931e-17
1.68471e-18
9.47489e-20
5.35022e-21
2.98913e-22
1.77733e-23
8.05192e-25
1.06875e-25
1.52419e-27
9.03142e-27
6.2095e-27
4.7835e-27
5.74954e-27
1.70549e-27
5.1349e-28
3.82207e-27
1.09422e-13
1.67032e-13
9.40088e-15
5.29053e-16
2.97752e-17
1.67553e-18
9.43175e-20
5.30472e-21
2.99842e-22
1.62691e-23
1.09613e-24
2.0737e-26
1.45348e-26
1.01295e-26
2.68221e-27
2.23508e-27
2.70496e-28
1.39034e-27
3.74592e-28
1.71023e-27
1.08835e-13
1.66185e-13
9.35325e-15
5.26382e-16
2.96235e-17
1.66732e-18
9.38184e-20
5.28289e-21
2.98064e-22
1.67386e-23
1.04476e-24
3.41623e-26
9.28678e-27
1.02355e-27
2.9217e-28
2.29223e-30
1.54e-27
1.7132e-27
1.57801e-28
3.64037e-28
1.08279e-13
1.65401e-13
9.30927e-15
5.23909e-16
2.94852e-17
1.6594e-18
9.34151e-20
5.25166e-21
2.96858e-22
1.66582e-23
8.94204e-25
8.13693e-26
4.09004e-28
5.7238e-27
2.07226e-27
7.65227e-29
6.68235e-28
3.18063e-27
9.22153e-29
2.68492e-29
1.07771e-13
1.6468e-13
9.26885e-15
5.21644e-16
2.93583e-17
1.6521e-18
9.29927e-20
5.23546e-21
2.93397e-22
1.63397e-23
9.52736e-25
5.61647e-26
1.25747e-27
3.2011e-27
4.62646e-28
3.47422e-28
4.14345e-32
9.23266e-30
1.264e-29
4.35582e-28
1.07276e-13
1.63993e-13
9.23031e-15
5.19487e-16
2.92372e-17
1.64547e-18
9.25805e-20
5.21789e-21
2.93263e-22
1.66822e-23
9.78229e-25
2.81085e-26
5.78769e-27
7.84461e-29
4.17102e-30
5.0082e-29
3.44571e-29
6.76682e-29
2.58936e-28
1.48222e-28
1.06858e-13
1.63385e-13
9.19625e-15
5.17575e-16
2.913e-17
1.63954e-18
9.22864e-20
5.18618e-21
2.93879e-22
1.62735e-23
9.38588e-25
3.731e-26
8.08238e-27
5.03426e-29
6.0622e-28
5.41934e-28
1.79891e-28
2.26197e-28
3.8887e-28
1.7044e-28
1.06396e-13
1.62759e-13
9.16112e-15
5.15603e-16
2.90186e-17
1.63326e-18
9.19603e-20
5.1716e-21
2.88909e-22
1.64992e-23
9.34619e-25
6.06198e-26
3.53528e-27
7.77517e-27
3.98188e-30
6.34272e-29
1.3996e-27
8.18611e-28
4.03466e-28
1.54916e-28
1.06092e-13
1.62244e-13
9.13227e-15
5.13987e-16
2.89275e-17
1.62836e-18
9.16135e-20
5.16361e-21
2.87726e-22
1.69065e-23
8.36211e-25
9.09027e-26
2.23727e-27
2.21444e-28
4.45678e-27
8.96477e-28
2.22446e-27
1.09963e-27
1.44024e-28
1.88897e-29
1.05558e-13
1.61608e-13
9.09653e-15
5.1198e-16
2.88158e-17
1.62201e-18
9.12421e-20
5.13971e-21
2.89114e-22
1.6646e-23
8.09085e-25
6.81807e-26
1.84695e-27
3.25125e-28
1.15905e-27
4.79493e-28
1.15467e-27
3.5285e-27
1.53022e-28
3.9652e-28
1.05881e-13
1.61586e-13
9.10915e-15
5.13465e-16
2.89444e-17
1.63138e-18
9.20163e-20
5.17575e-21
2.92928e-22
1.6006e-23
9.56787e-25
2.87829e-26
1.27013e-26
4.10681e-32
3.07223e-27
7.1469e-28
7.68709e-28
2.37899e-27
1.71203e-29
4.57231e-30
1.05741e-13
1.61036e-13
9.0706e-15
5.1346e-16
2.88243e-17
1.65446e-18
9.03558e-20
5.63384e-21
2.43592e-22
2.68037e-23
7.84309e-26
4.82045e-25
6.55276e-26
5.20435e-26
2.44832e-26
6.29763e-27
1.59167e-27
4.42599e-28
6.44466e-28
2.40468e-27
)
;

boundaryField
{
    movingWall
    {
        type            calculated;
        value           nonuniform List<scalar> 
20
(
1.0511e-13
1.61609e-13
9.12718e-15
5.22154e-16
2.92863e-17
1.72572e-18
9.1422e-20
6.37181e-21
2.06568e-22
4.30362e-23
2.50545e-25
1.632e-24
3.05688e-25
1.97752e-25
1.44372e-25
4.95089e-26
2.51453e-26
1.6251e-26
4.76429e-27
1.10063e-26
)
;
    }
    fixedWalls
    {
        type            calculated;
        value           nonuniform List<scalar> 
60
(
3.11683e-12
3.11469e-12
3.10611e-12
3.09979e-12
3.08469e-12
3.06922e-12
3.05118e-12
3.03418e-12
3.01691e-12
3.001e-12
2.98576e-12
2.97166e-12
2.95869e-12
2.94632e-12
2.93537e-12
2.9241e-12
2.91482e-12
2.90337e-12
2.8987e-12
2.88977e-12
2.10525e-28
1.86008e-28
1.0769e-27
2.35181e-27
1.51147e-27
4.45311e-27
2.18621e-27
1.247e-27
7.01317e-27
3.50256e-27
5.53608e-28
1.88507e-31
3.11618e-28
1.97747e-29
1.25756e-29
5.8466e-29
2.03599e-29
8.06797e-28
2.89156e-29
2.57406e-27
1.14366e-13
1.74818e-13
9.89183e-15
5.68189e-16
3.17128e-17
1.90268e-18
9.68955e-20
7.51896e-21
1.669e-22
7.24039e-23
2.65212e-24
4.75115e-24
1.61624e-24
9.23471e-25
2.76129e-25
1.50979e-25
3.94363e-26
5.89673e-27
5.2182e-29
9.43214e-29
)
;
    }
    frontAndBack
    {
        type            empty;
    }
}


// ************************************************************************* //
