/*--------------------------------*- C++ -*----------------------------------*\
| =========                 |                                                 |
| \\      /  F ield         | OpenFOAM: The Open Source CFD Toolbox           |
|  \\    /   O peration     | Version:  2506                                  |
|   \\  /    A nd           | Website:  www.openfoam.com                      |
|    \\/     M anipulation  |                                                 |
\*---------------------------------------------------------------------------*/
FoamFile
{
    version     2.0;
    format      ascii;
    arch        "LSB;label=32;scalar=64";
    class       volScalarField;
    location    "4.75";
    object      epsilonzeroGrad;
}
// * * * * * * * * * * * * * * * * * * * * * * * * * * * * * * * * * * * * * //

dimensions      [0 2 -3 0 0 0 0];

internalField   nonuniform List<scalar> 
400
(
1.09049e-05
1.09049e-05
1.09048e-05
1.09048e-05
1.09048e-05
1.09047e-05
1.09047e-05
1.09047e-05
1.09047e-05
1.09046e-05
1.09047e-05
1.09046e-05
1.09047e-05
1.09046e-05
1.09046e-05
1.09046e-05
1.09046e-05
1.09046e-05
1.09046e-05
1.09046e-05
1.27745e-05
1.24506e-05
1.24765e-05
1.24873e-05
1.25088e-05
1.25202e-05
1.25417e-05
1.25537e-05
1.25752e-05
1.25877e-05
1.26093e-05
1.26223e-05
1.2644e-05
1.26574e-05
1.26793e-05
1.26931e-05
1.27152e-05
1.27294e-05
1.27406e-05
1.27589e-05
1.53508e-05
1.49308e-05
1.49647e-05
1.49787e-05
1.50069e-05
1.50217e-05
1.50497e-05
1.50652e-05
1.50932e-05
1.51093e-05
1.51373e-05
1.5154e-05
1.51821e-05
1.51993e-05
1.52275e-05
1.52452e-05
1.52736e-05
1.52917e-05
1.5306e-05
1.53294e-05
1.75922e-05
1.70856e-05
1.71263e-05
1.71432e-05
1.7177e-05
1.71948e-05
1.72285e-05
1.72471e-05
1.72807e-05
1.73002e-05
1.73338e-05
1.7354e-05
1.73877e-05
1.74085e-05
1.74424e-05
1.74638e-05
1.74979e-05
1.75198e-05
1.75371e-05
1.75654e-05
1.91405e-05
1.85711e-05
1.86167e-05
1.86356e-05
1.86734e-05
1.86934e-05
1.87311e-05
1.87521e-05
1.87897e-05
1.88116e-05
1.88493e-05
1.88719e-05
1.89098e-05
1.89332e-05
1.89713e-05
1.89953e-05
1.90336e-05
1.90583e-05
1.90776e-05
1.91094e-05
2.00865e-05
1.94778e-05
1.95264e-05
1.95466e-05
1.95869e-05
1.96082e-05
1.96485e-05
1.96709e-05
1.97111e-05
1.97344e-05
1.97747e-05
1.97989e-05
1.98393e-05
1.98643e-05
1.99049e-05
1.99306e-05
1.99716e-05
1.9998e-05
2.00187e-05
2.00526e-05
2.06382e-05
2.00063e-05
2.00567e-05
2.00776e-05
2.01195e-05
2.01416e-05
2.01834e-05
2.02065e-05
2.02482e-05
2.02725e-05
2.03142e-05
2.03393e-05
2.03813e-05
2.04072e-05
2.04494e-05
2.04761e-05
2.05186e-05
2.0546e-05
2.05674e-05
2.06027e-05
2.09685e-05
2.03228e-05
2.03742e-05
2.03956e-05
2.04384e-05
2.04609e-05
2.05036e-05
2.05273e-05
2.05699e-05
2.05946e-05
2.06373e-05
2.06629e-05
2.07058e-05
2.07323e-05
2.07754e-05
2.08026e-05
2.08461e-05
2.08741e-05
2.0896e-05
2.0932e-05
2.11872e-05
2.05323e-05
2.05845e-05
2.06061e-05
2.06495e-05
2.06723e-05
2.07156e-05
2.07396e-05
2.07828e-05
2.08079e-05
2.08511e-05
2.08772e-05
2.09206e-05
2.09475e-05
2.09912e-05
2.10188e-05
2.10629e-05
2.10913e-05
2.11135e-05
2.11501e-05
2.13556e-05
2.06936e-05
2.07463e-05
2.07682e-05
2.0812e-05
2.08351e-05
2.08788e-05
2.09031e-05
2.09467e-05
2.09721e-05
2.10158e-05
2.10421e-05
2.1086e-05
2.11132e-05
2.11573e-05
2.11853e-05
2.12298e-05
2.12585e-05
2.1281e-05
2.13179e-05
2.15062e-05
2.0838e-05
2.08912e-05
2.09133e-05
2.09575e-05
2.09808e-05
2.10249e-05
2.10494e-05
2.10935e-05
2.11191e-05
2.11632e-05
2.11897e-05
2.1234e-05
2.12614e-05
2.1306e-05
2.13342e-05
2.13791e-05
2.14081e-05
2.14308e-05
2.14681e-05
2.1657e-05
2.09824e-05
2.10361e-05
2.10584e-05
2.1103e-05
2.11265e-05
2.1171e-05
2.11958e-05
2.12402e-05
2.1266e-05
2.13106e-05
2.13374e-05
2.13821e-05
2.14098e-05
2.14547e-05
2.14832e-05
2.15285e-05
2.15578e-05
2.15807e-05
2.16184e-05
2.18181e-05
2.1137e-05
2.11912e-05
2.12137e-05
2.12587e-05
2.12825e-05
2.13275e-05
2.13524e-05
2.13973e-05
2.14234e-05
2.14683e-05
2.14954e-05
2.15406e-05
2.15685e-05
2.16139e-05
2.16427e-05
2.16885e-05
2.17181e-05
2.17412e-05
2.17792e-05
2.19977e-05
2.1309e-05
2.13637e-05
2.13865e-05
2.1432e-05
2.1456e-05
2.15015e-05
2.15267e-05
2.15721e-05
2.15984e-05
2.16439e-05
2.16712e-05
2.17169e-05
2.17451e-05
2.17911e-05
2.18202e-05
2.18664e-05
2.18963e-05
2.19197e-05
2.19581e-05
2.22018e-05
2.15045e-05
2.15599e-05
2.1583e-05
2.1629e-05
2.16534e-05
2.16993e-05
2.17249e-05
2.17708e-05
2.17975e-05
2.18435e-05
2.18712e-05
2.19174e-05
2.1946e-05
2.19925e-05
2.20219e-05
2.20688e-05
2.2099e-05
2.21227e-05
2.21616e-05
2.24355e-05
2.17284e-05
2.17846e-05
2.18079e-05
2.18546e-05
2.18793e-05
2.19259e-05
2.19518e-05
2.19983e-05
2.20254e-05
2.2072e-05
2.21001e-05
2.21469e-05
2.21759e-05
2.2223e-05
2.22529e-05
2.23004e-05
2.23311e-05
2.23551e-05
2.23946e-05
2.26976e-05
2.19795e-05
2.20365e-05
2.20602e-05
2.21076e-05
2.21326e-05
2.21799e-05
2.22062e-05
2.22535e-05
2.2281e-05
2.23283e-05
2.23568e-05
2.24044e-05
2.24338e-05
2.24817e-05
2.2512e-05
2.25602e-05
2.25914e-05
2.26158e-05
2.26558e-05
2.29704e-05
2.22411e-05
2.22989e-05
2.2323e-05
2.23711e-05
2.23965e-05
2.24445e-05
2.24712e-05
2.25192e-05
2.25471e-05
2.25951e-05
2.26241e-05
2.26724e-05
2.27023e-05
2.27509e-05
2.27818e-05
2.28307e-05
2.28624e-05
2.28872e-05
2.29279e-05
2.32087e-05
2.24854e-05
2.25416e-05
2.2565e-05
2.2612e-05
2.2637e-05
2.26839e-05
2.27105e-05
2.27575e-05
2.27855e-05
2.28327e-05
2.28621e-05
2.29096e-05
2.29401e-05
2.29881e-05
2.30197e-05
2.30683e-05
2.3101e-05
2.31257e-05
2.31668e-05
2.33111e-05
2.3311e-05
2.33109e-05
2.33108e-05
2.33107e-05
2.33107e-05
2.33106e-05
2.33105e-05
2.33105e-05
2.33105e-05
2.33104e-05
2.33104e-05
2.33104e-05
2.33104e-05
2.33104e-05
2.33104e-05
2.33104e-05
2.33104e-05
2.33104e-05
2.33104e-05
)
;

boundaryField
{
    movingWall
    {
        type            zeroGradient;
    }
    fixedWalls
    {
        type            zeroGradient;
    }
    frontAndBack
    {
        type            empty;
    }
}


// ************************************************************************* //
