/*--------------------------------*- C++ -*----------------------------------*\
| =========                 |                                                 |
| \\      /  F ield         | OpenFOAM: The Open Source CFD Toolbox           |
|  \\    /   O peration     | Version:  2506                                  |
|   \\  /    A nd           | Website:  www.openfoam.com                      |
|    \\/     M anipulation  |                                                 |
\*---------------------------------------------------------------------------*/
FoamFile
{
    version     2.0;
    format      ascii;
    arch        "LSB;label=32;scalar=64";
    class       volScalarField;
    location    "4.75";
    object      flowTypeField;
}
// * * * * * * * * * * * * * * * * * * * * * * * * * * * * * * * * * * * * * //

dimensions      [0 0 0 0 0 0 0];

internalField   nonuniform List<scalar> 
400
(
0.000926581
-0.000564851
-0.000926411
-0.00319823
-0.00126092
-0.0114652
0.0104975
-0.0580355
0.134252
-0.363654
0.802875
-0.141799
0.157364
0.0813472
0.132536
0.135028
0.297587
0.251672
0.720849
0.170346
0.00619771
0.000246515
0.0005427
-0.00177557
-0.000313688
-0.00617746
0.00195277
-0.0213741
0.0278476
-0.0885528
0.24053
0.431086
0.790444
0.837449
0.79272
0.953675
0.884936
0.326533
0.36878
3.89607e-05
0.00663582
0.00106027
0.00170209
0.00193018
0.00118675
0.00511741
-0.00349581
0.0202368
-0.0396859
0.100146
-0.154533
0.416605
0.694655
0.4656
0.348796
0.233772
0.284214
0.200362
-0.216642
-0.211913
0.00239688
0.00039209
0.000556664
0.000524155
0.000924339
-0.000685475
0.00553066
-0.0143515
0.042751
-0.146075
0.251995
0.355501
0.648208
0.703993
0.566581
0.596946
0.291463
0.464621
-0.263144
0.231887
0.000668223
0.000108267
0.000140277
0.000168881
6.86439e-06
0.000937243
-0.00289237
0.0109717
-0.0362798
0.0951634
-0.565378
0.435329
0.844543
0.92629
0.759431
0.607443
0.930608
0.89949
0.586728
0.319816
-0.000762386
-0.000114163
-0.000250711
-0.000190849
-0.000251664
-0.000742806
0.001355
-0.00730628
0.0220604
-0.0912348
0.164822
0.142805
0.467036
0.448288
0.52183
0.197498
0.0186546
-0.046527
0.12669
-0.427272
-0.00131018
-0.000207022
-0.000366879
-0.000346157
-0.000442452
-0.000322357
-0.0016221
0.00410777
-0.0200076
0.0680645
-0.256679
0.457965
0.737317
0.670348
0.715219
0.147912
0.0235397
-0.384106
0.463562
0.290031
-0.00163253
-0.000255913
-0.000456552
-0.000399912
-0.000525309
-0.000732147
2.59082e-05
-0.00365451
0.0095162
-0.0493995
0.14374
0.144917
0.616712
0.968551
0.285265
0.610653
0.284094
0.0648818
0.293026
0.462809
-0.0016548
-0.00026225
-0.00044552
-0.000424116
-0.000495871
-0.000657212
-0.000778111
-9.03721e-05
-0.00757709
0.0144568
0.00387691
0.198867
0.711033
0.465542
0.368077
0.370448
0.171403
0.127927
0.215091
-0.443124
-0.00158151
-0.000249213
-0.000423884
-0.000387555
-0.000501613
-0.000587176
-0.00056937
-0.00130078
0.00184941
0.000616946
0.056533
0.416376
0.442093
0.32008
0.436945
0.463371
0.618537
0.510499
0.322542
0.108397
-0.0014152
-0.000223128
-0.000372588
-0.000350497
-0.000412682
-0.000571997
-0.000484102
-0.000926732
-0.00190395
0.00645564
0.00541547
0.451389
0.457541
0.728597
0.746969
0.962369
0.309106
0.0305244
0.4375
0.517667
-0.00119887
-0.000188257
-0.000310027
-0.000289736
-0.00034561
-0.000376075
-0.000781895
0.000805136
-0.00610046
0.0178594
0.0339809
0.21442
0.869267
0.53193
0.577066
0.834275
0.578789
0.223799
0.410053
0.673978
-0.00100787
-0.000156676
-0.000262317
-0.00023415
-0.000285517
-0.000388461
0.000133594
-0.00255947
0.0102282
-0.0240566
0.114086
0.0585735
0.794309
0.585423
0.803702
0.755274
0.982854
0.860866
0.872235
-0.0843228
-0.000764632
-0.000120236
-0.000188476
-0.000187016
-0.000223271
-8.38832e-05
-0.000982733
0.00292426
-0.0142806
0.0470013
-0.162731
0.568958
0.575601
0.899763
0.967226
0.854272
0.843801
0.504362
0.140219
0.0051303
-0.000668376
-0.000102552
-0.000177733
-0.000157244
-0.000147476
-0.000558039
0.00113858
-0.00553826
0.0177272
-0.0627402
0.174439
-0.0612088
0.508856
0.914757
0.666503
0.538414
0.667242
0.572522
0.000349337
0.00180097
-0.000373035
-6.13375e-05
-8.72223e-05
-7.79561e-05
-0.000193855
0.000482745
-0.00257881
0.00846161
-0.0240984
0.0746735
-0.322814
0.38582
0.600736
0.203655
0.963161
0.82726
0.149595
0.158702
0.0125894
0.0680774
-0.000580522
-9.11256e-05
-0.000159158
-0.000193587
7.50128e-05
-0.00141897
0.00341181
-0.0121289
0.0348996
-0.125887
0.252084
-0.151282
0.744055
0.844337
0.0119804
0.389544
0.00609186
0.00284363
0.0166933
0.758387
0.000101194
-4.69869e-06
3.37448e-05
0.000273995
-0.0004599
0.0021505
-0.00420115
0.0132244
-0.033654
0.07979
-0.204862
0.369643
0.714598
0.860616
0.653662
0.615927
0.336448
-0.0197817
0.420983
0.251559
-0.00284574
-0.00120485
-0.00190987
-0.00376469
-0.00348295
-0.00845338
-0.00369542
-0.020874
0.0133608
-0.0673278
0.156694
0.248494
0.418299
0.992081
0.471381
0.5568
0.484476
0.161529
0.768789
0.880084
-0.00367398
-0.00130495
-0.0022138
-0.00409477
-0.00341658
-0.0110916
0.00232864
-0.042707
0.0774357
-0.238589
0.714402
-0.221372
0.212707
-0.0915874
0.0509212
0.223737
0.335746
0.431863
0.152614
0.117512
)
;

boundaryField
{
    movingWall
    {
        type            calculated;
        value           nonuniform List<scalar> 
20
(
0.764068
0.267606
0.266719
0.261716
0.263433
0.248812
0.270324
0.197893
0.378219
-0.0927323
0.713498
-0.235286
0.0997399
-0.0731846
0.00503722
0.0375018
0.0437694
0.0366074
0.0145635
-0.0184694
)
;
    }
    fixedWalls
    {
        type            calculated;
        value           nonuniform List<scalar> 
60
(
0.000176974
0.00118209
0.00127609
0.000471567
0.000145067
-0.000129825
-0.000236046
-0.00030085
-0.000307259
-0.000295792
-0.000265425
-0.000225653
-0.000189806
-0.000144252
-0.000126012
-7.02981e-05
-0.000109644
1.95938e-05
-0.000541081
-0.000701147
0.0931895
0.729402
0.169507
0.163183
0.327386
-0.394704
0.362083
0.350199
-0.136264
0.119622
0.140506
0.95984
0.078642
0.0338202
0.0212907
0.146661
0.79534
0.528687
0.767011
0.455202
0.763323
0.26754
0.266696
0.260814
0.264811
0.244776
0.279921
0.170806
0.461431
-0.252036
0.435366
-0.13487
0.0558073
-0.00887775
0.0191901
0.0132177
0.089066
0.107144
0.706468
0.388759
)
;
    }
    frontAndBack
    {
        type            empty;
    }
}


// ************************************************************************* //
