/*--------------------------------*- C++ -*----------------------------------*\
| =========                 |                                                 |
| \\      /  F ield         | OpenFOAM: The Open Source CFD Toolbox           |
|  \\    /   O peration     | Version:  2506                                  |
|   \\  /    A nd           | Website:  www.openfoam.com                      |
|    \\/     M anipulation  |                                                 |
\*---------------------------------------------------------------------------*/
FoamFile
{
    version     2.0;
    format      ascii;
    arch        "LSB;label=32;scalar=64";
    class       surfaceScalarField;
    location    "4.75";
    object      fluxField;
}
// * * * * * * * * * * * * * * * * * * * * * * * * * * * * * * * * * * * * * //

dimensions      [0 3 -1 0 0 0 0];

oriented        oriented;

internalField   nonuniform List<scalar> 
760
(
-5e-05
-1.03318e-16
-5e-05
7.44037e-17
-5e-05
1.02213e-17
-5e-05
5.87773e-18
-5e-05
3.8923e-18
-5e-05
1.17651e-18
-5e-05
1.09427e-18
-5e-05
5.00242e-19
-5e-05
3.89316e-19
-5e-05
2.37957e-19
-5e-05
1.69372e-19
-5e-05
1.16309e-19
-5e-05
8.54152e-20
-5e-05
6.16717e-20
-5e-05
4.36019e-20
-5e-05
3.08041e-20
-5e-05
2.4616e-20
-5e-05
1.61738e-20
-5e-05
9.4631e-21
2.48795e-21
-5e-05
-2.02737e-16
-5e-05
8.09155e-17
-5e-05
-2.38918e-19
-5e-05
9.79315e-18
-5e-05
3.95704e-18
-5e-05
2.39261e-18
-5e-05
1.56972e-18
-5e-05
9.37763e-19
-5e-05
6.56513e-19
-5e-05
4.3768e-19
-5e-05
3.0977e-19
-5e-05
2.16017e-19
-5e-05
1.53883e-19
-5e-05
1.11551e-19
-5e-05
8.16068e-20
-5e-05
5.81345e-20
-5e-05
4.05e-20
-5e-05
2.85633e-20
-5e-05
1.65854e-20
2.41199e-21
-5e-05
2.85246e-16
-5e-05
-8.61108e-17
-5e-05
2.93484e-17
-5e-05
-1.83515e-18
-5e-05
5.46768e-18
-5e-05
1.92483e-18
-5e-05
1.81314e-18
-5e-05
1.09669e-18
-5e-05
8.08309e-19
-5e-05
5.58053e-19
-5e-05
4.05455e-19
-5e-05
2.91028e-19
-5e-05
2.08877e-19
-5e-05
1.50279e-19
-5e-05
1.10376e-19
-5e-05
8.04241e-20
-5e-05
5.4723e-20
-5e-05
3.71452e-20
-5e-05
2.07921e-20
5.49294e-21
-5e-05
-4.31423e-16
-5e-05
1.15565e-16
-5e-05
-2.49535e-17
-5e-05
9.92189e-18
-5e-05
8.05996e-19
-5e-05
2.44584e-18
-5e-05
1.41644e-18
-5e-05
1.14862e-18
-5e-05
8.1875e-19
-5e-05
6.03351e-19
-5e-05
4.45615e-19
-5e-05
3.27794e-19
-5e-05
2.38864e-19
-5e-05
1.74065e-19
-5e-05
1.3023e-19
-5e-05
9.89528e-20
-5e-05
7.216e-20
-5e-05
4.89719e-20
-5e-05
2.73997e-20
9.41683e-21
-5e-05
4.31961e-16
-5e-05
-1.08931e-16
-5e-05
2.86192e-17
-5e-05
-4.71479e-18
-5e-05
3.5189e-18
-5e-05
1.15546e-18
-5e-05
1.37846e-18
-5e-05
9.71797e-19
-5e-05
7.74426e-19
-5e-05
5.79916e-19
-5e-05
4.39265e-19
-5e-05
3.28661e-19
-5e-05
2.45675e-19
-5e-05
1.84589e-19
-5e-05
1.42108e-19
-5e-05
1.0849e-19
-5e-05
7.91892e-20
-5e-05
5.09072e-20
-5e-05
2.717e-20
9.33463e-21
-5e-05
-4.71734e-16
-5e-05
1.15961e-16
-5e-05
-2.65386e-17
-5e-05
7.99652e-18
-5e-05
-3.07693e-19
-5e-05
1.58109e-18
-5e-05
9.21829e-19
-5e-05
8.55258e-19
-5e-05
6.60371e-19
-5e-05
5.2504e-19
-5e-05
4.02072e-19
-5e-05
3.10996e-19
-5e-05
2.40961e-19
-5e-05
1.85602e-19
-5e-05
1.42909e-19
-5e-05
1.07091e-19
-5e-05
7.28056e-20
-5e-05
4.14954e-20
-5e-05
1.96886e-20
8.337e-21
-5e-05
4.39834e-16
-5e-05
-1.05408e-16
-5e-05
2.60216e-17
-5e-05
-5.17331e-18
-5e-05
2.37326e-18
-5e-05
5.22181e-19
-5e-05
8.59233e-19
-5e-05
6.36832e-19
-5e-05
5.43905e-19
-5e-05
4.3472e-19
-5e-05
3.46767e-19
-5e-05
2.75082e-19
-5e-05
2.17847e-19
-5e-05
1.71425e-19
-5e-05
1.29778e-19
-5e-05
9.64119e-20
-5e-05
6.53966e-20
-5e-05
3.589e-20
-5e-05
1.81166e-20
8.94808e-21
-5e-05
-4.39075e-16
-5e-05
1.04623e-16
-5e-05
-2.43383e-17
-5e-05
6.46482e-18
-5e-05
-7.83407e-19
-5e-05
9.32455e-19
-5e-05
4.73674e-19
-5e-05
5.01537e-19
-5e-05
4.01225e-19
-5e-05
3.36705e-19
-5e-05
2.7424e-19
-5e-05
2.21818e-19
-5e-05
1.77096e-19
-5e-05
1.42775e-19
-5e-05
1.08298e-19
-5e-05
7.82706e-20
-5e-05
5.53373e-20
-5e-05
3.09688e-20
-5e-05
1.90903e-20
1.05233e-20
-5e-05
4.03007e-16
-5e-05
-9.4823e-17
-5e-05
2.28175e-17
-5e-05
-4.97157e-18
-5e-05
1.62852e-18
-5e-05
7.02655e-20
-5e-05
4.17305e-19
-5e-05
2.97943e-19
-5e-05
2.79996e-19
-5e-05
2.34249e-19
-5e-05
1.95202e-19
-5e-05
1.61015e-19
-5e-05
1.30532e-19
-5e-05
1.04587e-19
-5e-05
8.16778e-20
-5e-05
5.84167e-20
-5e-05
4.05102e-20
-5e-05
2.57935e-20
-5e-05
1.87636e-20
1.0939e-20
-5e-05
-3.84033e-16
-5e-05
9.02885e-17
-5e-05
-2.12397e-17
-5e-05
5.17844e-18
-5e-05
-1.02444e-18
-5e-05
4.40019e-19
-5e-05
9.20015e-20
-5e-05
1.65904e-19
-5e-05
1.38259e-19
-5e-05
1.27403e-19
-5e-05
1.11051e-19
-5e-05
9.82962e-20
-5e-05
8.30639e-20
-5e-05
6.94142e-20
-5e-05
5.87916e-20
-5e-05
4.50603e-20
-5e-05
2.90595e-20
-5e-05
1.85948e-20
-5e-05
1.40562e-20
7.31071e-21
-5e-05
3.54655e-16
-5e-05
-8.29069e-17
-5e-05
1.95733e-17
-5e-05
-4.65189e-18
-5e-05
1.0269e-18
-5e-05
-2.90726e-19
-5e-05
3.60233e-20
-5e-05
-2.38329e-20
-5e-05
7.38673e-21
-5e-05
1.5631e-20
-5e-05
2.42362e-20
-5e-05
2.91296e-20
-5e-05
3.26359e-20
-5e-05
3.64697e-20
-5e-05
3.68141e-20
-5e-05
3.29684e-20
-5e-05
2.07041e-20
-5e-05
9.95448e-21
-5e-05
6.45964e-21
2.11805e-21
-5e-05
-3.27145e-16
-5e-05
7.64628e-17
-5e-05
-1.83103e-17
-5e-05
4.008e-18
-5e-05
-1.26413e-18
-5e-05
-6.73375e-21
-5e-05
-2.55524e-19
-5e-05
-1.49695e-19
-5e-05
-1.27891e-19
-5e-05
-8.36648e-20
-5e-05
-5.30409e-20
-5e-05
-3.22386e-20
-5e-05
-1.56489e-20
-5e-05
-3.74439e-21
-5e-05
4.64859e-21
-5e-05
1.15217e-20
-5e-05
8.51835e-21
-5e-05
2.3103e-21
-5e-05
1.05723e-21
1.72149e-22
-5e-05
3.10937e-16
-5e-05
-7.28073e-17
-5e-05
1.67363e-17
-5e-05
-4.52261e-18
-5e-05
4.29547e-19
-5e-05
-6.89417e-19
-5e-05
-3.41801e-19
-5e-05
-3.28233e-19
-5e-05
-2.42472e-19
-5e-05
-1.77771e-19
-5e-05
-1.19148e-19
-5e-05
-8.07138e-20
-5e-05
-5.55701e-20
-5e-05
-3.88331e-20
-5e-05
-2.44948e-20
-5e-05
-1.18344e-20
-5e-05
-6.48179e-21
-5e-05
-7.20546e-21
-5e-05
-4.64772e-21
-2.59279e-22
-5e-05
-2.79207e-16
-5e-05
6.51832e-17
-5e-05
-1.62804e-17
-5e-05
2.83849e-18
-5e-05
-1.68694e-18
-5e-05
-5.19923e-19
-5e-05
-6.51919e-19
-5e-05
-4.60519e-19
-5e-05
-3.57348e-19
-5e-05
-2.57652e-19
-5e-05
-1.83694e-19
-5e-05
-1.29286e-19
-5e-05
-9.10668e-20
-5e-05
-6.34113e-20
-5e-05
-4.24967e-20
-5e-05
-2.68791e-20
-5e-05
-1.64394e-20
-5e-05
-1.33677e-20
-5e-05
-8.21363e-21
-7.06496e-22
-5e-05
2.82426e-16
-5e-05
-6.66771e-17
-5e-05
1.43066e-17
-5e-05
-4.95444e-18
-5e-05
-3.74455e-19
-5e-05
-1.21419e-18
-5e-05
-7.675e-19
-5e-05
-6.24467e-19
-5e-05
-4.44151e-19
-5e-05
-3.22274e-19
-5e-05
-2.31008e-19
-5e-05
-1.65695e-19
-5e-05
-1.17383e-19
-5e-05
-8.03922e-20
-5e-05
-5.48351e-20
-5e-05
-3.71003e-20
-5e-05
-2.346e-20
-5e-05
-1.50629e-20
-5e-05
-8.02695e-21
-9.89288e-22
-5e-05
-2.45916e-16
-5e-05
5.70857e-17
-5e-05
-1.61167e-17
-5e-05
1.32895e-18
-5e-05
-2.59174e-18
-5e-05
-1.14542e-18
-5e-05
-1.05341e-18
-5e-05
-7.0406e-19
-5e-05
-5.11973e-19
-5e-05
-3.57238e-19
-5e-05
-2.51767e-19
-5e-05
-1.79222e-19
-5e-05
-1.29013e-19
-5e-05
-8.86525e-20
-5e-05
-6.24415e-20
-5e-05
-4.40153e-20
-5e-05
-2.87111e-20
-5e-05
-1.41134e-20
-5e-05
-6.87141e-21
-2.76874e-21
-5e-05
2.77219e-16
-5e-05
-6.61128e-17
-5e-05
1.00755e-17
-5e-05
-6.46647e-18
-5e-05
-1.82578e-18
-5e-05
-1.77405e-18
-5e-05
-1.09435e-18
-5e-05
-7.43794e-19
-5e-05
-5.0946e-19
-5e-05
-3.44894e-19
-5e-05
-2.36103e-19
-5e-05
-1.63424e-19
-5e-05
-1.14856e-19
-5e-05
-8.05803e-20
-5e-05
-5.87296e-20
-5e-05
-4.1909e-20
-5e-05
-2.68494e-20
-5e-05
-1.322e-20
-5e-05
-7.67639e-21
-4.60349e-21
-5e-05
-2.05516e-16
-5e-05
4.25024e-17
-5e-05
-2.53406e-17
-5e-05
4.26331e-19
-5e-05
-4.66833e-18
-5e-05
-1.07794e-18
-5e-05
-1.21039e-18
-5e-05
-5.78371e-19
-5e-05
-4.38524e-19
-5e-05
-2.67801e-19
-5e-05
-1.86906e-19
-5e-05
-1.24793e-19
-5e-05
-8.00319e-20
-5e-05
-5.27076e-20
-5e-05
-3.90447e-20
-5e-05
-3.01308e-20
-5e-05
-2.04258e-20
-5e-05
-1.43669e-20
-5e-05
-9.89255e-21
-4.67996e-21
-5e-05
2.55357e-16
-5e-05
-8.6172e-17
-5e-05
-3.06613e-20
-5e-05
-4.60176e-18
-5e-05
-2.74134e-18
-5e-05
-6.79514e-19
-5e-05
-7.9095e-19
-5e-05
-3.105e-19
-5e-05
-2.58413e-19
-5e-05
-1.43367e-19
-5e-05
-1.0674e-19
-5e-05
-7.27342e-20
-5e-05
-4.32249e-20
-5e-05
-2.37001e-20
-5e-05
-1.68504e-20
-5e-05
-1.5081e-20
-5e-05
-1.17976e-20
-5e-05
-1.07782e-20
-5e-05
-8.0515e-21
-3.26563e-21
-5e-05
-5e-05
-5e-05
-5e-05
-5e-05
-5e-05
-5e-05
-5e-05
-5e-05
-5e-05
-5e-05
-5e-05
-5e-05
-5e-05
-5e-05
-5e-05
-5e-05
-5e-05
-5e-05
)
;

boundaryField
{
    movingWall
    {
        type            calculated;
        value           uniform -0;
    }
    fixedWalls
    {
        type            calculated;
        value           nonuniform List<scalar> 
60
(
5e-05
5e-05
5e-05
5e-05
5e-05
5e-05
5e-05
5e-05
5e-05
5e-05
5e-05
5e-05
5e-05
5e-05
5e-05
5e-05
5e-05
5e-05
5e-05
5e-05
-5e-05
-5e-05
-5e-05
-5e-05
-5e-05
-5e-05
-5e-05
-5e-05
-5e-05
-5e-05
-5e-05
-5e-05
-5e-05
-5e-05
-5e-05
-5e-05
-5e-05
-5e-05
-5e-05
-5e-05
0
0
0
0
0
0
0
0
0
0
0
0
0
0
0
0
0
0
0
0
)
;
    }
    frontAndBack
    {
        type            empty;
    }
}


// ************************************************************************* //
