/*--------------------------------*- C++ -*----------------------------------*\
| =========                 |                                                 |
| \\      /  F ield         | OpenFOAM: The Open Source CFD Toolbox           |
|  \\    /   O peration     | Version:  2506                                  |
|   \\  /    A nd           | Website:  www.openfoam.com                      |
|    \\/     M anipulation  |                                                 |
\*---------------------------------------------------------------------------*/
FoamFile
{
    version     2.0;
    format      ascii;
    arch        "LSB;label=32;scalar=64";
    class       volVectorField;
    location    "4.75";
    object      gradPhi;
}
// * * * * * * * * * * * * * * * * * * * * * * * * * * * * * * * * * * * * * //

dimensions      [0 2 -1 0 0 0 0];

internalField   nonuniform List<vector> 
400
(
(-0.02 -1.36745e-14 0)
(-5.11694e-15 5.11654e-15 0)
(-5.70424e-15 5.70361e-15 0)
(-7.42808e-16 7.43437e-16 0)
(-1.29702e-15 1.2977e-15 0)
(-2.00178e-16 1.99849e-16 0)
(-2.66352e-16 2.66318e-16 0)
(-9.76073e-17 9.75555e-17 0)
(-8.27181e-17 8.32083e-17 0)
(-4.96308e-17 4.85059e-17 0)
(-3.47416e-17 3.48233e-17 0)
(-2.31611e-17 2.2984e-17 0)
(-1.8198e-17 1.74734e-17 0)
(-1.15805e-17 1.29049e-17 0)
(-9.92617e-18 8.97162e-18 0)
(-4.96308e-18 5.88977e-18 0)
(-4.96308e-18 5.50801e-18 0)
(-4.96308e-18 3.26152e-18 0)
(0 1.15498e-18 0)
(0 1.11007e-18 0)
(-0.02 -3.03453e-14 0)
(-3.54331e-14 3.54322e-14 0)
(7.48764e-15 -7.48711e-15 0)
(-2.54275e-15 2.5442e-15 0)
(8.55305e-16 -8.56949e-16 0)
(-3.88775e-16 3.89777e-16 0)
(-3.30872e-17 3.30514e-17 0)
(-1.05879e-16 1.07167e-16 0)
(-5.12852e-17 5.00922e-17 0)
(-4.1359e-17 4.20341e-17 0)
(-2.81241e-17 2.81068e-17 0)
(-1.98523e-17 2.09898e-17 0)
(-1.48893e-17 1.31531e-17 0)
(-8.27181e-18 9.21001e-18 0)
(-6.61744e-18 7.52247e-18 0)
(-6.61744e-18 6.08812e-18 0)
(-1.65436e-18 2.40794e-18 0)
(-3.30872e-18 2.63274e-18 0)
(-3.30872e-18 2.83218e-18 0)
(1.65436e-18 -9.24284e-19 0)
(-0.02 9.21352e-14 0)
(9.56072e-14 -9.56078e-14 0)
(-7.97402e-15 7.97373e-15 0)
(5.54376e-15 -5.54348e-15 0)
(-1.08195e-15 1.08195e-15 0)
(2.79587e-16 -2.81286e-16 0)
(-1.04225e-16 1.04599e-16 0)
(-9.92617e-18 9.92916e-18 0)
(-3.47416e-17 3.34957e-17 0)
(-2.15067e-17 2.16899e-17 0)
(-1.98523e-17 1.96039e-17 0)
(-1.48893e-17 1.54561e-17 0)
(-1.15805e-17 1.23486e-17 0)
(-9.92617e-18 8.55716e-18 0)
(-4.96308e-18 5.65071e-18 0)
(-3.30872e-18 4.21187e-18 0)
(-3.30872e-18 3.02463e-18 0)
(-1.65436e-18 1.30671e-18 0)
(1.65436e-18 -4.81767e-20 0)
(-1.65436e-18 4.90982e-19 0)
(-0.02 -1.15208e-13 0)
(-1.22631e-13 1.22633e-13 0)
(1.19279e-14 -1.19286e-14 0)
(-6.30477e-15 6.30433e-15 0)
(1.95545e-15 -1.95694e-15 0)
(-2.56426e-16 2.57006e-16 0)
(1.70399e-16 -1.69948e-16 0)
(-2.64698e-17 2.50313e-17 0)
(6.61744e-18 -4.92924e-18 0)
(-9.92617e-18 1.07701e-17 0)
(-8.27181e-18 7.13568e-18 0)
(-4.96308e-18 6.21112e-18 0)
(-4.96308e-18 4.45168e-18 0)
(-4.96308e-18 4.59343e-18 0)
(-4.96308e-18 4.56568e-18 0)
(-3.30872e-18 3.95945e-18 0)
(-3.30872e-18 3.65083e-18 0)
(-3.30872e-18 3.22426e-18 0)
(-1.65436e-18 1.80765e-18 0)
(-1.65436e-18 1.73991e-18 0)
(-0.02 1.2829e-13 0)
(1.34824e-13 -1.34825e-13 0)
(-1.22969e-14 1.22989e-14 0)
(7.08894e-15 -7.0897e-15 0)
(-1.72881e-15 1.72978e-15 0)
(4.25171e-16 -4.26236e-16 0)
(-8.60268e-17 8.60566e-17 0)
(5.45939e-17 -5.55988e-17 0)
(4.96308e-18 -3.99002e-18 0)
(8.27181e-18 -8.53239e-18 0)
(0 -1.31716e-18 0)
(0 9.04522e-19 0)
(-1.65436e-18 2.3432e-18 0)
(-1.65436e-18 9.28548e-19 0)
(0 8.75828e-19 0)
(-1.65436e-18 1.39244e-18 0)
(-3.30872e-18 1.76348e-18 0)
(1.65436e-18 -1.2379e-19 0)
(-1.65436e-18 2.84812e-19 0)
(1.65436e-18 -2.82549e-19 0)
(-0.02 -1.26116e-13 0)
(-1.34146e-13 1.34147e-13 0)
(1.27303e-14 -1.2731e-14 0)
(-6.61414e-15 6.61485e-15 0)
(1.9356e-15 -1.93542e-15 0)
(-2.59735e-16 2.59069e-16 0)
(1.8198e-16 -1.81832e-16 0)
(3.30872e-18 -4.74702e-18 0)
(2.97785e-17 -2.90927e-17 0)
(8.27181e-18 -7.7645e-18 0)
(6.61744e-18 -8.22658e-18 0)
(4.96308e-18 -4.62617e-18 0)
(0 -1.13408e-18 0)
(-1.65436e-18 1.87894e-18 0)
(-1.65436e-18 2.00074e-18 0)
(0 3.38538e-19 0)
(1.65436e-18 -2.09649e-18 0)
(1.65436e-18 -2.56839e-18 0)
(3.30872e-18 -2.89518e-18 0)
(0 -7.85755e-19 0)
(-0.02 1.21256e-13 0)
(1.28258e-13 -1.28257e-13 0)
(-1.21926e-14 1.21917e-14 0)
(6.39576e-15 -6.39597e-15 0)
(-1.63782e-15 1.63888e-15 0)
(3.72231e-16 -3.72336e-16 0)
(-7.27919e-17 7.27111e-17 0)
(6.12114e-17 -6.20696e-17 0)
(1.8198e-17 -1.79166e-17 0)
(2.15067e-17 -2.08267e-17 0)
(1.15805e-17 -1.03934e-17 0)
(6.61744e-18 -6.86952e-18 0)
(4.96308e-18 -5.08899e-18 0)
(3.30872e-18 -3.85437e-18 0)
(4.96308e-18 -3.86515e-18 0)
(1.65436e-18 -2.76099e-18 0)
(1.65436e-18 -1.37245e-18 0)
(0 2.84504e-19 0)
(0 9.87258e-19 0)
(-1.65436e-18 4.11069e-19 0)
(-0.02 -1.10937e-13 0)
(-1.1854e-13 1.18541e-13 0)
(1.16302e-14 -1.16305e-14 0)
(-5.68604e-15 5.68646e-15 0)
(1.62293e-15 -1.6244e-15 0)
(-2.26647e-16 2.27705e-16 0)
(1.52201e-16 -1.52895e-16 0)
(9.92617e-18 -8.93265e-18 0)
(3.14329e-17 -3.3437e-17 0)
(1.8198e-17 -1.82525e-17 0)
(1.65436e-17 -1.51853e-17 0)
(9.92617e-18 -1.05874e-17 0)
(6.61744e-18 -8.44093e-18 0)
(6.61744e-18 -5.11217e-18 0)
(3.30872e-18 -3.86532e-18 0)
(3.30872e-18 -3.42665e-18 0)
(1.65436e-18 -8.34484e-19 0)
(1.65436e-18 -2.53451e-18 0)
(0 -7.27283e-19 0)
(1.65436e-18 5.05506e-19 0)
(-0.02 1.01643e-13 0)
(1.08213e-13 -1.08212e-13 0)
(-1.08278e-14 1.08286e-14 0)
(5.2162e-15 -5.21653e-15 0)
(-1.35823e-15 1.35886e-15 0)
(2.99439e-16 -2.9899e-16 0)
(-5.62483e-17 5.6332e-17 0)
(5.62483e-17 -5.62412e-17 0)
(1.98523e-17 -1.95816e-17 0)
(2.15067e-17 -2.1312e-17 0)
(1.65436e-17 -1.52023e-17 0)
(9.92617e-18 -1.1955e-17 0)
(9.92617e-18 -8.72307e-18 0)
(8.27181e-18 -8.86994e-18 0)
(6.61744e-18 -5.43734e-18 0)
(4.96308e-18 -4.26341e-18 0)
(4.96308e-18 -5.02106e-18 0)
(0 1.27721e-19 0)
(-1.65436e-18 8.90828e-19 0)
(0 -1.47924e-20 0)
(-0.02 -9.03644e-14 0)
(-9.72036e-14 9.72036e-14 0)
(1.0037e-14 -1.00381e-14 0)
(-4.5528e-15 4.55184e-15 0)
(1.29206e-15 -1.29051e-15 0)
(-1.83634e-16 1.83738e-16 0)
(1.20768e-16 -1.22939e-16 0)
(1.48893e-17 -1.26922e-17 0)
(2.97785e-17 -3.1718e-17 0)
(2.15067e-17 -2.06632e-17 0)
(1.65436e-17 -1.74263e-17 0)
(1.48893e-17 -1.30921e-17 0)
(8.27181e-18 -9.84495e-18 0)
(6.61744e-18 -6.28963e-18 0)
(4.96308e-18 -4.86847e-18 0)
(3.30872e-18 -2.23681e-18 0)
(1.65436e-18 -1.12097e-18 0)
(1.65436e-18 -2.308e-18 0)
(1.65436e-18 -1.6597e-18 0)
(0 -1.80428e-19 0)
(-0.02 8.15035e-14 0)
(8.73155e-14 -8.73152e-14 0)
(-9.22968e-15 9.22847e-15 0)
(4.12763e-15 -4.12603e-15 0)
(-1.06541e-15 1.06571e-15 0)
(2.38228e-16 -2.38792e-16 0)
(-3.80503e-17 3.82257e-17 0)
(4.96308e-17 -4.99431e-17 0)
(2.15067e-17 -2.29814e-17 0)
(2.48154e-17 -2.28721e-17 0)
(1.8198e-17 -1.755e-17 0)
(1.32349e-17 -1.34123e-17 0)
(9.92617e-18 -9.96247e-18 0)
(6.61744e-18 -6.35966e-18 0)
(3.30872e-18 -4.07355e-18 0)
(3.30872e-18 -2.36944e-18 0)
(0 -7.87e-19 0)
(1.65436e-18 -7.48608e-19 0)
(0 -1.60959e-18 0)
(3.30872e-18 -2.5849e-18 0)
(-0.02 -7.19344e-14 0)
(-7.79634e-14 7.79624e-14 0)
(8.50342e-15 -8.50358e-15 0)
(-3.58666e-15 3.58632e-15 0)
(1.02405e-15 -1.02311e-15 0)
(-1.37312e-16 1.35879e-16 0)
(9.92617e-17 -9.91444e-17 0)
(1.32349e-17 -1.41023e-17 0)
(2.97785e-17 -3.0425e-17 0)
(1.98523e-17 -1.87617e-17 0)
(1.48893e-17 -1.47215e-17 0)
(1.32349e-17 -1.35992e-17 0)
(9.92617e-18 -1.02468e-17 0)
(6.61744e-18 -8.6486e-18 0)
(8.27181e-18 -6.66661e-18 0)
(4.96308e-18 -4.41258e-18 0)
(3.30872e-18 -4.20959e-18 0)
(3.30872e-18 -2.37867e-18 0)
(0 -3.19811e-19 0)
(-1.65436e-18 1.07349e-18 0)
(-0.02 6.53991e-14 0)
(7.04179e-14 -7.04167e-14 0)
(-7.82017e-15 7.8212e-15 0)
(3.31038e-15 -3.31102e-15 0)
(-8.30489e-16 8.30913e-16 0)
(2.03486e-16 -2.03463e-16 0)
(-1.98523e-17 1.84377e-17 0)
(4.46678e-17 -4.49611e-17 0)
(1.98523e-17 -1.98269e-17 0)
(2.31611e-17 -2.02766e-17 0)
(1.15805e-17 -1.27687e-17 0)
(6.61744e-18 -6.9139e-18 0)
(6.61744e-18 -6.70658e-18 0)
(8.27181e-18 -6.67983e-18 0)
(4.96308e-18 -5.72091e-18 0)
(6.61744e-18 -5.15763e-18 0)
(0 -2.23467e-18 0)
(3.30872e-18 -1.8129e-18 0)
(1.65436e-18 -1.9685e-18 0)
(1.65436e-18 -8.86031e-19 0)
(-0.02 -5.82636e-14 0)
(-6.36582e-14 6.36574e-14 0)
(7.31889e-15 -7.31791e-15 0)
(-2.8819e-15 2.88246e-15 0)
(8.5365e-16 -8.53882e-16 0)
(-9.42986e-17 9.33397e-17 0)
(9.26442e-17 -9.25203e-17 0)
(1.65436e-17 -1.74707e-17 0)
(2.64698e-17 -2.50232e-17 0)
(1.32349e-17 -1.46802e-17 0)
(1.48893e-17 -1.44061e-17 0)
(1.32349e-17 -1.26265e-17 0)
(8.27181e-18 -8.46734e-18 0)
(4.96308e-18 -4.99617e-18 0)
(1.65436e-18 -3.93641e-18 0)
(3.30872e-18 -2.61254e-18 0)
(1.65436e-18 -1.76175e-18 0)
(1.65436e-18 -8.31824e-19 0)
(0 -1.88917e-19 0)
(0 4.50428e-20 0)
(-0.02 5.4563e-14 0)
(5.88738e-14 -5.88735e-14 0)
(-6.75972e-15 6.75817e-15 0)
(2.81572e-15 -2.81513e-15 0)
(-6.50164e-16 6.49738e-16 0)
(1.90252e-16 -1.89603e-16 0)
(-4.96308e-18 4.74015e-18 0)
(4.1359e-17 -4.14986e-17 0)
(1.65436e-17 -1.59715e-17 0)
(1.32349e-17 -1.43289e-17 0)
(8.27181e-18 -8.82082e-18 0)
(4.96308e-18 -5.56278e-18 0)
(4.96308e-18 -4.3814e-18 0)
(3.30872e-18 -3.68485e-18 0)
(1.65436e-18 -1.74575e-18 0)
(1.65436e-18 -2.25424e-18 0)
(1.65436e-18 -1.73357e-18 0)
(0 -7.30663e-19 0)
(0 -4.75025e-19 0)
(0 2.68238e-19 0)
(-0.02 -4.93448e-14 0)
(-5.44384e-14 5.44382e-14 0)
(6.64226e-15 -6.64238e-15 0)
(-2.39882e-15 2.39937e-15 0)
(7.82513e-16 -7.81895e-16 0)
(-6.28657e-17 6.30791e-17 0)
(8.10637e-17 -8.17454e-17 0)
(1.15805e-17 -9.34773e-18 0)
(1.48893e-17 -1.5531e-17 0)
(6.61744e-18 -6.39e-18 0)
(3.30872e-18 -4.65438e-18 0)
(4.96308e-18 -4.27163e-18 0)
(1.65436e-18 -3.51855e-18 0)
(3.30872e-18 -1.38415e-18 0)
(1.65436e-18 -2.33307e-18 0)
(1.65436e-18 -1.13765e-18 0)
(0 -1.00979e-18 0)
(0 2.67532e-19 0)
(0 5.61581e-19 0)
(0 -4.42916e-19 0)
(-0.02 4.885e-14 0)
(5.25243e-14 -5.25263e-14 0)
(-5.90938e-15 5.90989e-15 0)
(2.56261e-15 -2.56264e-15 0)
(-4.91345e-16 4.92445e-16 0)
(1.72054e-16 -1.73421e-16 0)
(-9.92617e-18 1.0388e-17 0)
(1.65436e-17 -1.59565e-17 0)
(-1.65436e-18 1.02503e-18 0)
(-1.65436e-18 1.32429e-18 0)
(-3.30872e-18 3.22894e-18 0)
(-3.30872e-18 4.25776e-18 0)
(-3.30872e-18 3.58531e-18 0)
(-1.65436e-18 1.14826e-18 0)
(0 7.00974e-19 0)
(0 -7.94916e-20 0)
(0 -2.10032e-20 0)
(-1.65436e-18 4.49084e-19 0)
(1.65436e-18 -8.64463e-20 0)
(0 -6.99481e-19 0)
(-0.02 -4.27681e-14 0)
(-4.79219e-14 4.79223e-14 0)
(6.58767e-15 -6.5887e-15 0)
(-2.10104e-15 2.10083e-15 0)
(8.43724e-16 -8.41993e-16 0)
(-1.25731e-16 1.26121e-16 0)
(4.63221e-17 -4.55437e-17 0)
(-3.14329e-17 3.2166e-17 0)
(-1.32349e-17 1.13576e-17 0)
(-1.48893e-17 1.46102e-17 0)
(-8.27181e-18 9.18717e-18 0)
(-6.61744e-18 7.01809e-18 0)
(-8.27181e-18 7.21187e-18 0)
(-6.61744e-18 6.43986e-18 0)
(-4.96308e-18 4.53246e-18 0)
(-3.30872e-18 3.02707e-18 0)
(0 2.06759e-18 0)
(0 -7.79733e-19 0)
(0 -5.73965e-19 0)
(0 2.59701e-19 0)
(-0.02 4.51993e-14 0)
(4.58523e-14 -4.58542e-14 0)
(-1.43433e-15 1.43575e-15 0)
(1.39628e-15 -1.39622e-15 0)
(-2.38228e-16 2.37635e-16 0)
(-1.34003e-16 1.33277e-16 0)
(-7.11375e-17 7.24083e-17 0)
(-6.12114e-17 5.94179e-17 0)
(-3.63959e-17 3.6383e-17 0)
(-2.81241e-17 2.72608e-17 0)
(-1.48893e-17 1.69769e-17 0)
(-1.15805e-17 1.08999e-17 0)
(-4.96308e-18 6.66541e-18 0)
(-6.61744e-18 5.07381e-18 0)
(-4.96308e-18 4.45981e-18 0)
(-1.65436e-18 2.62825e-18 0)
(0 1.31921e-18 0)
(-1.65436e-18 1.33333e-18 0)
(0 2.99485e-19 0)
(0 -9.87365e-20 0)
(-0.02 -2.98825e-14 0)
(-2.48336e-14 2.48347e-14 0)
(-2.71646e-15 2.71786e-15 0)
(-1.04225e-15 1.04263e-15 0)
(-7.82513e-16 7.81494e-16 0)
(-1.15805e-16 1.15286e-16 0)
(-1.8198e-16 1.83299e-16 0)
(-6.12114e-17 6.2295e-17 0)
(-5.45939e-17 5.48621e-17 0)
(-2.81241e-17 2.84655e-17 0)
(-2.31611e-17 2.16098e-17 0)
(-1.48893e-17 1.47952e-17 0)
(-9.92617e-18 9.28252e-18 0)
(-4.96308e-18 5.14447e-18 0)
(-3.30872e-18 3.23229e-18 0)
(-1.65436e-18 3.17592e-18 0)
(-3.30872e-18 2.46114e-18 0)
(-1.65436e-18 1.92969e-18 0)
(0 1.73382e-18 0)
(-1.65436e-18 9.95869e-19 0)
)
;

boundaryField
{
    movingWall
    {
        type            extrapolatedCalculated;
        value           nonuniform List<vector> 
20
(
(-0.02 -2.98825e-14 0)
(-2.48336e-14 2.48347e-14 0)
(-2.71646e-15 2.71786e-15 0)
(-1.04225e-15 1.04263e-15 0)
(-7.82513e-16 7.81494e-16 0)
(-1.15805e-16 1.15286e-16 0)
(-1.8198e-16 1.83299e-16 0)
(-6.12114e-17 6.2295e-17 0)
(-5.45939e-17 5.48621e-17 0)
(-2.81241e-17 2.84655e-17 0)
(-2.31611e-17 2.16098e-17 0)
(-1.48893e-17 1.47952e-17 0)
(-9.92617e-18 9.28252e-18 0)
(-4.96308e-18 5.14447e-18 0)
(-3.30872e-18 3.23229e-18 0)
(-1.65436e-18 3.17592e-18 0)
(-3.30872e-18 2.46114e-18 0)
(-1.65436e-18 1.92969e-18 0)
(0 1.73382e-18 0)
(-1.65436e-18 9.95869e-19 0)
)
;
    }
    fixedWalls
    {
        type            extrapolatedCalculated;
        value           nonuniform List<vector> 
60
(
(-0.02 -1.36745e-14 0)
(-0.02 -3.03453e-14 0)
(-0.02 9.21352e-14 0)
(-0.02 -1.15208e-13 0)
(-0.02 1.2829e-13 0)
(-0.02 -1.26116e-13 0)
(-0.02 1.21256e-13 0)
(-0.02 -1.10937e-13 0)
(-0.02 1.01643e-13 0)
(-0.02 -9.03644e-14 0)
(-0.02 8.15035e-14 0)
(-0.02 -7.19344e-14 0)
(-0.02 6.53991e-14 0)
(-0.02 -5.82636e-14 0)
(-0.02 5.4563e-14 0)
(-0.02 -4.93448e-14 0)
(-0.02 4.885e-14 0)
(-0.02 -4.27681e-14 0)
(-0.02 4.51993e-14 0)
(-0.02 -2.98825e-14 0)
(0 1.11007e-18 0)
(1.65436e-18 -9.24284e-19 0)
(-1.65436e-18 4.90982e-19 0)
(-1.65436e-18 1.73991e-18 0)
(1.65436e-18 -2.82549e-19 0)
(0 -7.85755e-19 0)
(-1.65436e-18 4.11069e-19 0)
(1.65436e-18 5.05506e-19 0)
(0 -1.47924e-20 0)
(0 -1.80428e-19 0)
(3.30872e-18 -2.5849e-18 0)
(-1.65436e-18 1.07349e-18 0)
(1.65436e-18 -8.86031e-19 0)
(0 4.50428e-20 0)
(0 2.68238e-19 0)
(0 -4.42916e-19 0)
(0 -6.99481e-19 0)
(0 2.59701e-19 0)
(0 -9.87365e-20 0)
(-1.65436e-18 9.95869e-19 0)
(-0.02 -1.36745e-14 0)
(-5.11694e-15 5.11654e-15 0)
(-5.70424e-15 5.70361e-15 0)
(-7.42808e-16 7.43437e-16 0)
(-1.29702e-15 1.2977e-15 0)
(-2.00178e-16 1.99849e-16 0)
(-2.66352e-16 2.66318e-16 0)
(-9.76073e-17 9.75555e-17 0)
(-8.27181e-17 8.32083e-17 0)
(-4.96308e-17 4.85059e-17 0)
(-3.47416e-17 3.48233e-17 0)
(-2.31611e-17 2.2984e-17 0)
(-1.8198e-17 1.74734e-17 0)
(-1.15805e-17 1.29049e-17 0)
(-9.92617e-18 8.97162e-18 0)
(-4.96308e-18 5.88977e-18 0)
(-4.96308e-18 5.50801e-18 0)
(-4.96308e-18 3.26152e-18 0)
(0 1.15498e-18 0)
(0 1.11007e-18 0)
)
;
    }
    frontAndBack
    {
        type            empty;
    }
}


// ************************************************************************* //
