/*--------------------------------*- C++ -*----------------------------------*\
| =========                 |                                                 |
| \\      /  F ield         | OpenFOAM: The Open Source CFD Toolbox           |
|  \\    /   O peration     | Version:  2506                                  |
|   \\  /    A nd           | Website:  www.openfoam.com                      |
|    \\/     M anipulation  |                                                 |
\*---------------------------------------------------------------------------*/
FoamFile
{
    version     2.0;
    format      ascii;
    arch        "LSB;label=32;scalar=64";
    class       volTensorField;
    location    "4.75";
    object      gradU;
}
// * * * * * * * * * * * * * * * * * * * * * * * * * * * * * * * * * * * * * //

dimensions      [0 0 -1 0 0 0 0];

internalField   nonuniform List<tensor> 
400
(
(2.0112e-11 4.76107e-07 0 4.40972e-10 -4.1327e-10 0 0 0 0)
(3.32606e-10 -5.89067e-07 0 3.32904e-10 2.97615e-10 0 0 0 0)
(-4.39481e-10 1.39832e-07 0 -1.3024e-10 4.08854e-11 0 0 0 0)
(1.85317e-10 -3.32349e-08 0 1.06821e-10 2.35109e-11 0 0 0 0)
(-1.0056e-10 7.88284e-09 0 -1.05981e-11 1.55692e-11 0 0 0 0)
(2.13317e-11 -1.87759e-09 0 2.16569e-11 4.70605e-12 0 0 0 0)
(-1.42844e-11 4.44303e-10 0 4.41812e-12 4.37709e-12 0 0 0 0)
(6.23416e-13 -1.06553e-10 0 6.20706e-12 2.00097e-12 0 0 0 0)
(-2.54788e-12 2.48427e-11 0 3.1984e-12 1.55726e-12 0 0 0 0)
(-7.58942e-13 -6.21604e-12 0 2.52077e-12 9.51829e-13 0 0 0 0)
(-7.86047e-13 1.29403e-12 0 1.65341e-12 6.77488e-13 0 0 0 0)
(-4.60786e-13 -4.18044e-13 0 1.16552e-12 4.65236e-13 0 0 0 0)
(-3.25261e-13 2.28546e-14 0 7.86047e-13 3.41661e-13 0 0 0 0)
(-2.98156e-13 -7.11638e-14 0 5.42101e-13 2.46687e-13 0 0 0 0)
(-1.89735e-13 -3.25976e-14 0 3.25261e-13 1.74407e-13 0 0 0 0)
(-1.0842e-13 -1.66007e-14 0 2.1684e-13 1.23216e-13 0 0 0 0)
(-1.0842e-13 -1.43893e-14 0 1.0842e-13 9.84639e-14 0 0 0 0)
(-5.42101e-14 -1.97799e-14 0 5.42101e-14 6.46954e-14 0 0 0 0)
(-2.71051e-14 -1.02159e-14 0 0 3.78524e-14 0 0 0 0)
(0 -1.37347e-14 0 0 9.9518e-15 0 0 0 0)
(7.53819e-10 -4.76223e-07 0 -2.95074e-09 -3.97676e-10 0 0 0 0)
(-9.03845e-10 5.89521e-07 0 1.44633e-10 2.60472e-11 0 0 0 0)
(2.13371e-10 -1.40106e-07 0 -7.5867e-11 -4.1841e-11 0 0 0 0)
(-6.56755e-11 3.32095e-08 0 -5.90348e-11 1.56617e-11 0 0 0 0)
(1.53957e-11 -7.90165e-09 0 2.49366e-12 2.58955e-13 0 0 0 0)
(-6.28837e-12 1.8664e-09 0 -1.15468e-11 4.86438e-12 0 0 0 0)
(-1.16552e-12 -4.47008e-10 0 -8.67362e-13 1.90181e-12 0 0 0 0)
(-1.84314e-12 1.03733e-10 0 -2.24972e-12 1.75008e-12 0 0 0 0)
(-1.11131e-12 -2.58919e-11 0 -6.77626e-13 1.06879e-12 0 0 0 0)
(-8.40257e-13 5.33627e-12 0 -6.23416e-13 7.98892e-13 0 0 0 0)
(-5.42101e-13 -1.78062e-12 0 -3.25261e-13 5.61591e-13 0 0 0 0)
(-4.06576e-13 8.22173e-14 0 -2.43945e-13 3.98834e-13 0 0 0 0)
(-2.71051e-13 -2.41404e-13 0 -1.6263e-13 2.73869e-13 0 0 0 0)
(-1.89735e-13 -9.60898e-14 0 -1.35525e-13 1.99519e-13 0 0 0 0)
(-1.35525e-13 -9.08728e-14 0 -5.42101e-14 1.5202e-13 0 0 0 0)
(-1.0842e-13 -5.93428e-14 0 -5.42101e-14 1.09322e-13 0 0 0 0)
(-8.13152e-14 -4.41316e-14 0 -5.42101e-14 6.3536e-14 0 0 0 0)
(0 -4.08316e-14 0 0 4.95578e-14 0 0 0 0)
(-5.42101e-14 -4.45277e-14 0 0 2.84893e-14 0 0 0 0)
(0 -3.40695e-14 0 0 -3.03859e-16 0 0 0 0)
(-2.78599e-09 4.75735e-07 0 3.14489e-09 1.95193e-09 0 0 0 0)
(3.20745e-09 -5.88711e-07 0 -6.15095e-10 -6.68105e-10 0 0 0 0)
(-6.43149e-10 1.39822e-07 0 2.36464e-10 1.18349e-10 0 0 0 0)
(2.63678e-10 -3.31928e-08 0 -6.29921e-11 -4.65132e-11 0 0 0 0)
(-5.30446e-11 7.87204e-09 0 9.16151e-12 6.04257e-12 0 0 0 0)
(1.79707e-11 -1.87595e-09 0 -9.51387e-12 -1.87111e-12 0 0 0 0)
(-5.01444e-12 4.41188e-10 0 -1.57209e-12 9.73654e-13 0 0 0 0)
(8.13152e-13 -1.07386e-10 0 -2.1684e-12 6.35706e-13 0 0 0 0)
(-9.21572e-13 2.38915e-11 0 -9.75782e-13 6.07185e-13 0 0 0 0)
(-3.79471e-13 -6.72324e-12 0 -6.50521e-13 4.81491e-13 0 0 0 0)
(-4.33681e-13 8.93971e-13 0 -4.06576e-13 3.8274e-13 0 0 0 0)
(-2.98156e-13 -7.05766e-13 0 -2.43945e-13 3.00043e-13 0 0 0 0)
(-2.43945e-13 -1.7646e-13 0 -8.13152e-14 2.19977e-13 0 0 0 0)
(-1.35525e-13 -1.93013e-13 0 -5.42101e-14 1.54912e-13 0 0 0 0)
(-1.0842e-13 -1.22795e-13 0 0 1.15076e-13 0 0 0 0)
(-1.0842e-13 -1.05085e-13 0 2.71051e-14 8.91586e-14 0 0 0 0)
(-5.42101e-14 -7.41532e-14 0 0 5.6892e-14 0 0 0 0)
(-2.71051e-14 -5.48266e-14 0 0 3.43275e-14 0 0 0 0)
(2.71051e-14 -6.00775e-14 0 2.71051e-14 1.68268e-14 0 0 0 0)
(-2.71051e-14 -4.19202e-14 0 2.71051e-14 1.23238e-14 0 0 0 0)
(3.28356e-09 -4.74939e-07 0 -1.11846e-09 -2.86668e-09 0 0 0 0)
(-3.81224e-09 5.87687e-07 0 2.17518e-10 8.06704e-10 0 0 0 0)
(7.65447e-10 -1.39484e-07 0 -7.53792e-11 -2.17208e-10 0 0 0 0)
(-2.93006e-10 3.30972e-08 0 1.60191e-11 4.70281e-11 0 0 0 0)
(6.8901e-11 -7.857e-09 0 -6.93889e-12 -1.86467e-11 0 0 0 0)
(-1.70491e-11 1.86133e-09 0 -1.35525e-12 2.08402e-12 0 0 0 0)
(6.23416e-12 -4.44501e-10 0 -2.41235e-12 -1.58679e-12 0 0 0 0)
(-1.19262e-12 1.03367e-10 0 -1.49078e-12 2.07726e-13 0 0 0 0)
(3.52366e-13 -2.60461e-11 0 -1.11131e-12 4.17637e-14 0 0 0 0)
(-2.43945e-13 5.11182e-12 0 -7.58942e-13 1.81191e-13 0 0 0 0)
(-1.35525e-13 -1.96207e-12 0 -4.87891e-13 1.6064e-13 0 0 0 0)
(-1.0842e-13 -8.05457e-14 0 -2.98156e-13 1.47064e-13 0 0 0 0)
(-1.0842e-13 -3.86535e-13 0 -2.43945e-13 1.19947e-13 0 0 0 0)
(-8.13152e-14 -2.00991e-13 0 -1.35525e-13 9.51415e-14 0 0 0 0)
(-5.42101e-14 -1.56626e-13 0 -8.13152e-14 7.94156e-14 0 0 0 0)
(-1.0842e-13 -1.17527e-13 0 -5.42101e-14 7.41147e-14 0 0 0 0)
(-8.13152e-14 -9.89627e-14 0 0 6.97481e-14 0 0 0 0)
(-5.42101e-14 -8.08969e-14 0 -2.71051e-14 4.73069e-14 0 0 0 0)
(0 -6.65314e-14 0 2.71051e-14 2.64303e-14 0 0 0 0)
(-5.42101e-14 -6.32201e-14 0 0 1.56956e-14 0 0 0 0)
(-3.68699e-09 4.73675e-07 0 2.89618e-10 3.45354e-09 0 0 0 0)
(4.25053e-09 -5.86061e-07 0 -4.73525e-11 -8.97983e-10 0 0 0 0)
(-8.44593e-10 1.39062e-07 0 1.6778e-11 2.14291e-10 0 0 0 0)
(3.32145e-10 -3.29942e-08 0 -3.84892e-12 -5.85467e-11 0 0 0 0)
(-7.04731e-11 7.8271e-09 0 -2.71051e-13 1.08516e-11 0 0 0 0)
(2.24972e-11 -1.85889e-09 0 -1.5992e-12 -5.1615e-12 0 0 0 0)
(-5.14996e-12 4.39312e-10 0 -1.30104e-12 -1.51938e-13 0 0 0 0)
(2.05998e-12 -1.05758e-10 0 -1.13841e-12 -7.07294e-13 0 0 0 0)
(-1.89735e-13 2.3865e-11 0 -8.67362e-13 -1.77296e-13 0 0 0 0)
(2.71051e-13 -6.60436e-12 0 -6.23416e-13 -9.37384e-14 0 0 0 0)
(0 8.59844e-13 0 -4.87891e-13 -2.54e-14 0 0 0 0)
(0 -7.4646e-13 0 -3.25261e-13 3.46809e-15 0 0 0 0)
(-8.13152e-14 -2.28383e-13 0 -2.71051e-13 2.72441e-14 0 0 0 0)
(0 -2.33544e-13 0 -2.1684e-13 4.20955e-14 0 0 0 0)
(0 -1.43822e-13 0 -1.89735e-13 4.75136e-14 0 0 0 0)
(0 -1.14752e-13 0 -1.89735e-13 3.81497e-14 0 0 0 0)
(-5.42101e-14 -1.00961e-13 0 -1.0842e-13 2.8117e-14 0 0 0 0)
(0 -9.81444e-14 0 -1.0842e-13 7.74128e-15 0 0 0 0)
(0 -9.16888e-14 0 -5.42101e-14 -9.18693e-16 0 0 0 0)
(0 -8.40461e-14 0 -2.71051e-14 -3.28814e-16 0 0 0 0)
(3.52588e-09 -4.72383e-07 0 3.87169e-10 -3.61478e-09 0 0 0 0)
(-4.08508e-09 5.84448e-07 0 -8.16946e-11 8.99566e-10 0 0 0 0)
(8.08923e-10 -1.38645e-07 0 3.72966e-11 -2.20631e-10 0 0 0 0)
(-3.10082e-10 3.28938e-08 0 -7.77915e-12 5.08453e-11 0 0 0 0)
(7.1205e-11 -7.80362e-09 0 2.30393e-12 -1.53064e-11 0 0 0 0)
(-1.80791e-11 1.85033e-09 0 -1.46367e-12 1.70253e-12 0 0 0 0)
(6.66784e-12 -4.40047e-10 0 -5.42101e-13 -1.82651e-12 0 0 0 0)
(-7.58942e-13 1.03342e-10 0 -7.58942e-13 -4.66155e-13 0 0 0 0)
(8.94467e-13 -2.54325e-11 0 -5.42101e-13 -4.5622e-13 0 0 0 0)
(1.35525e-13 5.26372e-12 0 -4.87891e-13 -2.19506e-13 0 0 0 0)
(1.6263e-13 -1.86486e-12 0 -2.98156e-13 -1.48772e-13 0 0 0 0)
(5.42101e-14 -2.79016e-14 0 -2.71051e-13 -7.06591e-14 0 0 0 0)
(0 -3.47908e-13 0 -1.6263e-13 -1.88548e-14 0 0 0 0)
(0 -1.80722e-13 0 -8.13152e-14 4.05374e-15 0 0 0 0)
(-5.42101e-14 -1.60572e-13 0 -8.13152e-14 3.20564e-15 0 0 0 0)
(0 -1.36923e-13 0 -2.71051e-14 -5.59883e-15 0 0 0 0)
(0 -1.29371e-13 0 0 -2.55346e-14 0 0 0 0)
(5.42101e-14 -1.09933e-13 0 2.71051e-14 -3.76471e-14 0 0 0 0)
(8.13152e-14 -7.46015e-14 0 2.71051e-14 -2.99258e-14 0 0 0 0)
(0 -6.19726e-14 0 2.71051e-14 -3.99051e-15 0 0 0 0)
(-3.38152e-09 4.7096e-07 0 -6.43366e-10 3.64627e-09 0 0 0 0)
(3.90066e-09 -5.82667e-07 0 1.3436e-10 -8.85476e-10 0 0 0 0)
(-7.70624e-10 1.38213e-07 0 -5.30175e-11 2.10241e-10 0 0 0 0)
(2.97099e-10 -3.27889e-08 0 1.27394e-11 -5.26793e-11 0 0 0 0)
(-6.41306e-11 7.77796e-09 0 -3.71339e-12 1.07238e-11 0 0 0 0)
(1.96783e-11 -1.84541e-09 0 7.04731e-13 -4.23565e-12 0 0 0 0)
(-4.44523e-12 4.37143e-10 0 -7.31836e-13 -2.50383e-13 0 0 0 0)
(1.97867e-12 -1.04387e-10 0 -4.06576e-13 -8.73705e-13 0 0 0 0)
(1.89735e-13 2.41116e-11 0 -4.87891e-13 -4.65863e-13 0 0 0 0)
(4.33681e-13 -6.29692e-12 0 -4.06576e-13 -3.6128e-13 0 0 0 0)
(2.43945e-13 1.00869e-12 0 -3.52366e-13 -2.21218e-13 0 0 0 0)
(1.35525e-13 -6.16543e-13 0 -2.71051e-13 -1.43658e-13 0 0 0 0)
(1.0842e-13 -1.5367e-13 0 -2.1684e-13 -9.24551e-14 0 0 0 0)
(1.0842e-13 -2.11484e-13 0 -1.35525e-13 -5.6709e-14 0 0 0 0)
(2.71051e-14 -1.53474e-13 0 -1.0842e-13 -5.25263e-14 0 0 0 0)
(8.13152e-14 -1.43492e-13 0 0 -4.27144e-14 0 0 0 0)
(0 -1.33009e-13 0 0 -2.96362e-14 0 0 0 0)
(2.71051e-14 -1.02536e-13 0 5.42101e-14 -2.24218e-14 0 0 0 0)
(0 -5.80322e-14 0 -2.71051e-14 -6.28797e-15 0 0 0 0)
(-5.42101e-14 -5.01297e-14 0 0 2.44431e-15 0 0 0 0)
(3.01687e-09 -4.69623e-07 0 7.89597e-10 -3.51564e-09 0 0 0 0)
(-3.49471e-09 5.81012e-07 0 -1.59811e-10 8.40123e-10 0 0 0 0)
(6.87276e-10 -1.37812e-07 0 6.47811e-11 -2.0144e-10 0 0 0 0)
(-2.60778e-10 3.26943e-08 0 -1.41488e-11 4.65525e-11 0 0 0 0)
(5.91161e-11 -7.75517e-09 0 4.3097e-12 -1.26267e-11 0 0 0 0)
(-1.50975e-11 1.83935e-09 0 -1.40946e-12 1.6411e-12 0 0 0 0)
(5.58364e-12 -4.36685e-10 0 2.71051e-14 -1.54224e-12 0 0 0 0)
(-4.87891e-13 1.03126e-10 0 -3.79471e-13 -5.41179e-13 0 0 0 0)
(8.40257e-13 -2.49201e-11 0 -2.1684e-13 -5.70724e-13 0 0 0 0)
(3.25261e-13 5.50836e-12 0 -2.98156e-13 -3.9206e-13 0 0 0 0)
(3.52366e-13 -1.64724e-12 0 -1.89735e-13 -2.90111e-13 0 0 0 0)
(1.6263e-13 1.00862e-13 0 -1.89735e-13 -2.13057e-13 0 0 0 0)
(1.89735e-13 -2.60959e-13 0 -1.35525e-13 -1.63004e-13 0 0 0 0)
(1.35525e-13 -1.40793e-13 0 -1.35525e-13 -1.14599e-13 0 0 0 0)
(2.71051e-14 -1.46577e-13 0 -2.71051e-14 -8.59183e-14 0 0 0 0)
(1.0842e-13 -1.14033e-13 0 -5.42101e-14 -7.25654e-14 0 0 0 0)
(0 -1.09078e-13 0 -2.71051e-14 -4.0237e-14 0 0 0 0)
(2.71051e-14 -8.65843e-14 0 0 -1.96848e-14 0 0 0 0)
(5.42101e-14 -4.97354e-14 0 0 3.89506e-15 0 0 0 0)
(0 -5.81289e-14 0 -2.71051e-14 6.30089e-15 0 0 0 0)
(-2.75171e-09 4.68285e-07 0 -7.95181e-10 3.36833e-09 0 0 0 0)
(3.17585e-09 -5.79353e-07 0 1.61194e-10 -7.97782e-10 0 0 0 0)
(-6.24988e-10 1.3742e-07 0 -6.27753e-11 1.88623e-10 0 0 0 0)
(2.36654e-10 -3.26001e-08 0 1.4718e-11 -4.57456e-11 0 0 0 0)
(-5.13912e-11 7.73304e-09 0 -4.01155e-12 9.64773e-12 0 0 0 0)
(1.54499e-11 -1.83432e-09 0 1.27394e-12 -3.44876e-12 0 0 0 0)
(-3.46945e-12 4.34961e-10 0 -3.52366e-13 -2.25476e-13 0 0 0 0)
(1.73472e-12 -1.03416e-10 0 2.71051e-14 -8.14378e-13 0 0 0 0)
(2.1684e-13 2.42608e-11 0 -1.89735e-13 -4.84914e-13 0 0 0 0)
(4.87891e-13 -6.0163e-12 0 -5.42101e-14 -4.09824e-13 0 0 0 0)
(3.25261e-13 1.18769e-12 0 -8.13152e-14 -3.16151e-13 0 0 0 0)
(2.1684e-13 -4.89436e-13 0 -2.71051e-14 -2.43211e-13 0 0 0 0)
(1.35525e-13 -5.52121e-14 0 0 -1.86256e-13 0 0 0 0)
(1.89735e-13 -1.34398e-13 0 0 -1.5275e-13 0 0 0 0)
(1.0842e-13 -1.11441e-13 0 0 -1.06482e-13 0 0 0 0)
(1.0842e-13 -9.78111e-14 0 0 -7.94154e-14 0 0 0 0)
(8.13152e-14 -8.01287e-14 0 2.71051e-14 -5.93085e-14 0 0 0 0)
(2.71051e-14 -5.84035e-14 0 0 -2.07012e-14 0 0 0 0)
(-2.71051e-14 -3.20465e-14 0 0 -1.30714e-15 0 0 0 0)
(0 -6.03257e-14 0 2.71051e-14 1.6629e-15 0 0 0 0)
(2.38286e-09 -4.67052e-07 0 7.55391e-10 -3.14816e-09 0 0 0 0)
(-2.76228e-09 5.77832e-07 0 -1.51084e-10 7.40446e-10 0 0 0 0)
(5.40773e-10 -1.3706e-07 0 5.92788e-11 -1.76229e-10 0 0 0 0)
(-2.01933e-10 3.25153e-08 0 -1.32544e-11 4.06e-11 0 0 0 0)
(4.5672e-11 -7.71288e-09 0 4.01155e-12 -1.06119e-11 0 0 0 0)
(-1.15468e-11 1.82948e-09 0 -1.11131e-12 1.47901e-12 0 0 0 0)
(4.36391e-12 -4.3405e-10 0 2.71051e-13 -1.30121e-12 0 0 0 0)
(-2.71051e-13 1.02867e-10 0 -1.35525e-13 -5.28155e-13 0 0 0 0)
(7.58942e-13 -2.45155e-11 0 -2.71051e-14 -5.6695e-13 0 0 0 0)
(4.06576e-13 5.67713e-12 0 -2.71051e-14 -4.27384e-13 0 0 0 0)
(4.06576e-13 -1.48063e-12 0 0 -3.36603e-13 0 0 0 0)
(1.6263e-13 2.30757e-13 0 2.71051e-14 -2.50875e-13 0 0 0 0)
(2.1684e-13 -1.70498e-13 0 0 -1.89873e-13 0 0 0 0)
(1.35525e-13 -6.10192e-14 0 8.13152e-14 -1.40693e-13 0 0 0 0)
(8.13152e-14 -7.32422e-14 0 0 -9.15449e-14 0 0 0 0)
(1.0842e-13 -6.68593e-14 0 0 -5.34255e-14 0 0 0 0)
(0 -5.03643e-14 0 -2.71051e-14 -4.58027e-14 0 0 0 0)
(8.13152e-14 -2.8583e-14 0 -8.13152e-14 -2.87946e-14 0 0 0 0)
(2.71051e-14 -2.73712e-14 0 0 -1.88296e-14 0 0 0 0)
(-2.71051e-14 -5.84847e-14 0 0 -1.45132e-14 0 0 0 0)
(-2.1474e-09 4.65877e-07 0 -6.73669e-10 2.95475e-09 0 0 0 0)
(2.47973e-09 -5.76381e-07 0 1.3436e-10 -6.92782e-10 0 0 0 0)
(-4.87132e-10 1.3672e-07 0 -5.19062e-11 1.63252e-10 0 0 0 0)
(1.81306e-10 -3.24344e-08 0 1.18991e-11 -3.93213e-11 0 0 0 0)
(-3.92481e-11 7.69392e-09 0 -3.27971e-12 8.20538e-12 0 0 0 0)
(1.17636e-11 -1.82501e-09 0 1.0842e-12 -2.92298e-12 0 0 0 0)
(-2.49366e-12 4.32954e-10 0 -2.1684e-13 -2.23913e-13 0 0 0 0)
(1.46367e-12 -1.02682e-10 0 1.0842e-13 -7.58948e-13 0 0 0 0)
(3.25261e-13 2.43615e-11 0 -5.42101e-14 -5.23487e-13 0 0 0 0)
(4.87891e-13 -5.78596e-12 0 0 -4.47086e-13 0 0 0 0)
(3.52366e-13 1.3642e-12 0 -8.13152e-14 -3.47259e-13 0 0 0 0)
(2.71051e-13 -3.42705e-13 0 -8.13152e-14 -2.76667e-13 0 0 0 0)
(1.6263e-13 5.49697e-14 0 -8.13152e-14 -2.01712e-13 0 0 0 0)
(1.35525e-13 -3.60704e-14 0 -8.13152e-14 -1.31778e-13 0 0 0 0)
(8.13152e-14 -2.41731e-14 0 0 -8.79098e-14 0 0 0 0)
(5.42101e-14 -5.2069e-14 0 -5.42101e-14 -4.83679e-14 0 0 0 0)
(5.42101e-14 -5.54978e-14 0 0 -3.34217e-14 0 0 0 0)
(2.71051e-14 -3.14304e-14 0 2.71051e-14 -3.45614e-14 0 0 0 0)
(0 -1.77652e-14 0 0 -3.03861e-14 0 0 0 0)
(5.42101e-14 -2.69829e-14 0 0 -2.07706e-14 0 0 0 0)
(1.84358e-09 -4.6479e-07 0 5.68908e-10 -2.7272e-09 0 0 0 0)
(-2.14054e-09 5.75041e-07 0 -1.12594e-10 6.37479e-10 0 0 0 0)
(4.18285e-10 -1.36407e-07 0 4.30157e-11 -1.51534e-10 0 0 0 0)
(-1.53306e-10 3.23603e-08 0 -9.75782e-12 3.46396e-11 0 0 0 0)
(3.483e-11 -7.67648e-09 0 2.73761e-12 -9.16415e-12 0 0 0 0)
(-8.42967e-12 1.82105e-09 0 -7.04731e-13 1.13597e-12 0 0 0 0)
(3.36103e-12 -4.31886e-10 0 3.52366e-13 -1.16619e-12 0 0 0 0)
(-8.13152e-14 1.02567e-10 0 8.13152e-14 -5.03448e-13 0 0 0 0)
(6.50521e-13 -2.42037e-11 0 1.6263e-13 -5.41111e-13 0 0 0 0)
(3.52366e-13 5.85335e-12 0 8.13152e-14 -3.97183e-13 0 0 0 0)
(3.25261e-13 -1.31021e-12 0 2.71051e-14 -3.09108e-13 0 0 0 0)
(2.71051e-13 3.76304e-13 0 -2.71051e-14 -2.45473e-13 0 0 0 0)
(2.1684e-13 -2.56093e-14 0 -5.42101e-14 -1.93139e-13 0 0 0 0)
(1.89735e-13 5.27834e-14 0 -5.42101e-14 -1.60856e-13 0 0 0 0)
(1.0842e-13 1.01679e-14 0 -5.42101e-14 -1.28662e-13 0 0 0 0)
(5.42101e-14 -1.23712e-14 0 0 -8.57866e-14 0 0 0 0)
(8.13152e-14 -3.65578e-14 0 0 -4.87429e-14 0 0 0 0)
(8.13152e-14 -2.55474e-14 0 5.42101e-14 -3.05767e-14 0 0 0 0)
(0 -1.35805e-14 0 0 -2.16097e-14 0 0 0 0)
(-2.71051e-14 -7.32792e-15 0 0 -7.78362e-15 0 0 0 0)
(-1.69106e-09 4.63787e-07 0 -4.77564e-10 2.55233e-09 0 0 0 0)
(1.95381e-09 -5.73805e-07 0 9.35395e-11 -5.9708e-10 0 0 0 0)
(-3.84295e-10 1.36117e-07 0 -3.63208e-11 1.40187e-10 0 0 0 0)
(1.41082e-10 -3.22921e-08 0 7.88757e-12 -3.41224e-11 0 0 0 0)
(-3.0195e-11 7.66042e-09 0 -2.24972e-12 6.77472e-12 0 0 0 0)
(9.32414e-12 -1.81702e-09 0 7.31836e-13 -2.73073e-12 0 0 0 0)
(-1.68051e-12 4.31314e-10 0 5.42101e-14 -3.45108e-13 0 0 0 0)
(1.21973e-12 -1.02056e-10 0 2.71051e-13 -7.14154e-13 0 0 0 0)
(3.25261e-13 2.44678e-11 0 2.43945e-13 -4.58324e-13 0 0 0 0)
(4.06576e-13 -5.55395e-12 0 1.6263e-13 -3.76425e-13 0 0 0 0)
(2.71051e-13 1.51591e-12 0 1.35525e-13 -2.64428e-13 0 0 0 0)
(1.6263e-13 -2.26736e-13 0 1.0842e-13 -1.93901e-13 0 0 0 0)
(1.35525e-13 1.39586e-13 0 1.89735e-13 -1.59685e-13 0 0 0 0)
(1.35525e-13 2.84065e-14 0 1.0842e-13 -1.40355e-13 0 0 0 0)
(1.35525e-13 5.08965e-14 0 8.13152e-14 -1.16574e-13 0 0 0 0)
(8.13152e-14 2.78502e-14 0 5.42101e-14 -9.34244e-14 0 0 0 0)
(5.42101e-14 -2.8787e-16 0 0 -6.00006e-14 0 0 0 0)
(2.71051e-14 -4.29713e-15 0 0 -3.8063e-14 0 0 0 0)
(5.42101e-14 5.02791e-15 0 0 -2.28198e-14 0 0 0 0)
(0 2.41042e-15 0 -2.71051e-14 -1.72571e-15 0 0 0 0)
(1.45947e-09 -4.62835e-07 0 3.62232e-10 -2.36058e-09 0 0 0 0)
(-1.69924e-09 5.72628e-07 0 -7.16387e-11 5.51962e-10 0 0 0 0)
(3.32687e-10 -1.35844e-07 0 2.60751e-11 -1.32067e-10 0 0 0 0)
(-1.19289e-10 3.22268e-08 0 -6.26127e-12 2.94444e-11 0 0 0 0)
(2.77014e-11 -7.64509e-09 0 1.76183e-12 -8.46595e-12 0 0 0 0)
(-6.12574e-12 1.81393e-09 0 -1.6263e-13 6.77975e-13 0 0 0 0)
(2.84603e-12 -4.2987e-10 0 4.33681e-13 -1.24047e-12 0 0 0 0)
(1.35525e-13 1.02454e-10 0 2.98156e-13 -5.29142e-13 0 0 0 0)
(5.69206e-13 -2.38659e-11 0 3.52366e-13 -4.59503e-13 0 0 0 0)
(2.71051e-13 6.04725e-12 0 2.71051e-13 -3.19525e-13 0 0 0 0)
(2.71051e-13 -1.12768e-12 0 2.71051e-13 -2.58186e-13 0 0 0 0)
(2.71051e-13 4.81047e-13 0 2.43945e-13 -1.94287e-13 0 0 0 0)
(2.1684e-13 2.79364e-14 0 1.35525e-13 -1.41987e-13 0 0 0 0)
(2.71051e-14 9.58946e-14 0 1.0842e-13 -9.83127e-14 0 0 0 0)
(1.0842e-13 5.70984e-14 0 5.42101e-14 -7.20073e-14 0 0 0 0)
(2.71051e-14 4.42019e-14 0 5.42101e-14 -6.0179e-14 0 0 0 0)
(5.42101e-14 1.88036e-14 0 2.71051e-14 -3.98303e-14 0 0 0 0)
(0 1.16334e-14 0 0 -2.4649e-14 0 0 0 0)
(0 2.27568e-14 0 0 -1.42636e-14 0 0 0 0)
(0 1.72176e-14 0 0 -1.78887e-15 0 0 0 0)
(-1.40038e-09 4.61979e-07 0 -3.1637e-10 2.24653e-09 0 0 0 0)
(1.61758e-09 -5.71577e-07 0 6.1149e-11 -5.27441e-10 0 0 0 0)
(-3.18945e-10 1.35594e-07 0 -2.45301e-11 1.22348e-10 0 0 0 0)
(1.16796e-10 -3.21685e-08 0 5.28549e-12 -3.11717e-11 0 0 0 0)
(-2.41506e-11 7.63165e-09 0 -1.16552e-12 5.24994e-12 0 0 0 0)
(8.0502e-12 -1.80979e-09 0 1.02999e-12 -2.77706e-12 0 0 0 0)
(-1.16552e-12 4.30107e-10 0 4.87891e-13 -4.62327e-13 0 0 0 0)
(1.11131e-12 -1.01276e-10 0 5.69206e-13 -6.55793e-13 0 0 0 0)
(2.71051e-13 2.46774e-11 0 4.33681e-13 -3.4721e-13 0 0 0 0)
(2.98156e-13 -5.35264e-12 0 3.52366e-13 -2.58485e-13 0 0 0 0)
(1.89735e-13 1.64115e-12 0 2.71051e-13 -1.89254e-13 0 0 0 0)
(8.13152e-14 -1.10536e-13 0 1.6263e-13 -1.45636e-13 0 0 0 0)
(8.13152e-14 2.35561e-13 0 1.0842e-13 -1.05265e-13 0 0 0 0)
(5.42101e-14 9.8386e-14 0 1.0842e-13 -6.79235e-14 0 0 0 0)
(5.42101e-14 8.90302e-14 0 5.42101e-14 -4.93537e-14 0 0 0 0)
(2.71051e-14 6.00272e-14 0 2.71051e-14 -4.08847e-14 0 0 0 0)
(0 3.52422e-14 0 5.42101e-14 -2.80825e-14 0 0 0 0)
(5.42101e-14 2.12696e-14 0 0 -6.78092e-15 0 0 0 0)
(0 2.7888e-14 0 0 7.46699e-16 0 0 0 0)
(0 1.84629e-14 0 0 -1.13117e-15 0 0 0 0)
(1.20422e-09 -4.61116e-07 0 1.78433e-10 -2.11337e-09 0 0 0 0)
(-1.40735e-09 5.70504e-07 0 -3.69442e-11 4.95051e-10 0 0 0 0)
(2.7677e-10 -1.35348e-07 0 1.21431e-11 -1.21693e-10 0 0 0 0)
(-9.59248e-11 3.21097e-08 0 -2.6563e-12 2.51336e-11 0 0 0 0)
(2.3473e-11 -7.61669e-09 0 1.51788e-12 -8.86912e-12 0 0 0 0)
(-4.47233e-12 1.80822e-09 0 8.67362e-13 2.75072e-13 0 0 0 0)
(2.38524e-12 -4.27748e-10 0 1.11131e-12 -1.14366e-12 0 0 0 0)
(1.0842e-13 1.02569e-10 0 8.67362e-13 -3.18374e-13 0 0 0 0)
(2.98156e-13 -2.34686e-11 0 5.69206e-13 -2.71291e-13 0 0 0 0)
(1.35525e-13 6.20521e-12 0 4.60786e-13 -1.39859e-13 0 0 0 0)
(1.35525e-13 -1.01483e-12 0 3.52366e-13 -8.30355e-14 0 0 0 0)
(2.71051e-14 5.65035e-13 0 2.1684e-13 -5.41077e-14 0 0 0 0)
(1.0842e-13 1.05649e-13 0 1.89735e-13 -4.65199e-14 0 0 0 0)
(2.71051e-14 1.51806e-13 0 2.71051e-14 -3.30413e-14 0 0 0 0)
(5.42101e-14 8.41372e-14 0 8.13152e-14 -3.04256e-14 0 0 0 0)
(0 6.54731e-14 0 5.42101e-14 -2.76599e-14 0 0 0 0)
(2.71051e-14 5.29074e-14 0 0 -2.10045e-14 0 0 0 0)
(-2.71051e-14 4.04626e-14 0 0 3.79824e-15 0 0 0 0)
(0 2.84065e-14 0 0 4.62216e-15 0 0 0 0)
(0 1.7602e-14 0 0 -7.11779e-15 0 0 0 0)
(-1.25889e-09 4.6036e-07 0 -2.73734e-10 2.09254e-09 0 0 0 0)
(1.45126e-09 -5.69585e-07 0 5.39662e-11 -4.92794e-10 0 0 0 0)
(-2.84657e-10 1.35125e-07 0 -2.18467e-11 1.04769e-10 0 0 0 0)
(1.06225e-10 -3.20556e-08 0 6.39679e-12 -3.11817e-11 0 0 0 0)
(-2.05998e-11 7.6068e-09 0 5.42101e-13 3.06383e-12 0 0 0 0)
(7.61652e-12 -1.80207e-09 0 2.57498e-12 -2.5145e-12 0 0 0 0)
(-1.21973e-12 4.29514e-10 0 1.46367e-12 -1.6375e-13 0 0 0 0)
(5.96311e-13 -1.00403e-10 0 1.21973e-12 -1.58935e-13 0 0 0 0)
(-8.13152e-14 2.48559e-11 0 8.67362e-13 1.00532e-14 0 0 0 0)
(0 -5.16438e-12 0 6.50521e-13 4.93774e-14 0 0 0 0)
(-8.13152e-14 1.7269e-12 0 4.33681e-13 6.26566e-14 0 0 0 0)
(-8.13152e-14 -7.40208e-14 0 3.52366e-13 6.31898e-14 0 0 0 0)
(-5.42101e-14 2.56627e-13 0 1.89735e-13 5.66282e-14 0 0 0 0)
(-2.71051e-14 1.1448e-13 0 1.35525e-13 3.22888e-14 0 0 0 0)
(0 9.44117e-14 0 0 1.48474e-14 0 0 0 0)
(0 6.94483e-14 0 2.71051e-14 8.42517e-15 0 0 0 0)
(0 6.67003e-14 0 0 7.4469e-15 0 0 0 0)
(0 4.68962e-14 0 0 3.57343e-15 0 0 0 0)
(0 1.6972e-14 0 0 -3.21991e-15 0 0 0 0)
(0 2.09586e-14 0 2.71051e-14 -7.33901e-15 0 0 0 0)
(9.8451e-10 -4.59516e-07 0 -4.13894e-11 -1.93094e-09 0 0 0 0)
(-1.15549e-09 5.68517e-07 0 -4.01155e-12 4.34461e-10 0 0 0 0)
(2.292e-10 -1.34886e-07 0 -4.2826e-12 -1.41664e-10 0 0 0 0)
(-7.35902e-11 3.2008e-08 0 8.67362e-12 2.75712e-11 0 0 0 0)
(1.96241e-11 -7.58803e-09 0 3.52366e-12 -1.13702e-11 0 0 0 0)
(-3.55076e-12 1.80499e-09 0 3.87602e-12 2.7844e-12 0 0 0 0)
(1.13841e-12 -4.25393e-10 0 1.78893e-12 -4.64157e-13 0 0 0 0)
(-5.42101e-13 1.02743e-10 0 1.35525e-12 6.61692e-13 0 0 0 0)
(-2.43945e-13 -2.32603e-11 0 7.86047e-13 2.83743e-13 0 0 0 0)
(-2.71051e-13 6.25781e-12 0 4.87891e-13 3.08374e-13 0 0 0 0)
(-2.1684e-13 -1.00102e-12 0 2.71051e-13 1.96784e-13 0 0 0 0)
(-1.35525e-13 5.59007e-13 0 1.89735e-13 1.54526e-13 0 0 0 0)
(-1.6263e-13 7.47478e-14 0 1.35525e-13 1.39297e-13 0 0 0 0)
(-1.35525e-13 1.10025e-13 0 1.35525e-13 1.11491e-13 0 0 0 0)
(-8.13152e-14 6.02736e-14 0 1.0842e-13 7.87398e-14 0 0 0 0)
(-5.42101e-14 5.80726e-14 0 2.71051e-14 4.71127e-14 0 0 0 0)
(-5.42101e-14 4.80556e-14 0 0 2.56945e-14 0 0 0 0)
(5.42101e-14 2.97958e-14 0 -5.42101e-14 -4.5874e-15 0 0 0 0)
(2.71051e-14 1.74941e-14 0 0 -8.86464e-15 0 0 0 0)
(-2.71051e-14 2.8161e-14 0 0 -3.05868e-16 0 0 0 0)
(-1.30438e-09 4.58864e-07 0 -1.3114e-09 1.84349e-09 0 0 0 0)
(1.48847e-09 -5.67796e-07 0 6.863e-10 -5.14697e-10 0 0 0 0)
(-2.71945e-10 1.34718e-07 0 -2.57606e-10 1.0124e-10 0 0 0 0)
(1.14031e-10 -3.19254e-08 0 1.20401e-10 -2.01124e-11 0 0 0 0)
(-2.53974e-11 7.58201e-09 0 -2.64545e-11 7.70794e-12 0 0 0 0)
(5.82759e-12 -1.79116e-09 0 1.51517e-11 1.59372e-12 0 0 0 0)
(-3.7405e-12 4.27391e-10 0 -1.5992e-12 1.67777e-12 0 0 0 0)
(-4.06576e-13 -9.96553e-11 0 2.08709e-12 1.07148e-12 0 0 0 0)
(-9.75782e-13 2.45026e-11 0 2.98156e-13 7.20444e-13 0 0 0 0)
(-4.87891e-13 -5.25134e-12 0 4.06576e-13 4.97735e-13 0 0 0 0)
(-3.79471e-13 1.57306e-12 0 1.89735e-13 3.20665e-13 0 0 0 0)
(-1.89735e-13 -1.31508e-13 0 1.0842e-13 2.08233e-13 0 0 0 0)
(-1.35525e-13 2.13592e-13 0 5.42101e-14 1.47228e-13 0 0 0 0)
(-1.0842e-13 5.39235e-14 0 5.42101e-14 1.1603e-13 0 0 0 0)
(-8.13152e-14 3.00336e-14 0 1.0842e-13 8.8777e-14 0 0 0 0)
(-5.42101e-14 1.6403e-14 0 5.42101e-14 6.01993e-14 0 0 0 0)
(-5.42101e-14 1.50002e-14 0 5.42101e-14 3.45128e-14 0 0 0 0)
(0 1.23371e-14 0 8.13152e-14 1.43548e-14 0 0 0 0)
(0 2.12535e-14 0 2.71051e-14 7.36422e-15 0 0 0 0)
(0 3.01291e-14 0 2.71051e-14 5.65731e-15 0 0 0 0)
(3.5944e-10 -4.58187e-07 0 1.68466e-09 -1.02143e-09 0 0 0 0)
(-1.01752e-10 5.66774e-07 0 -7.39724e-10 3.44688e-10 0 0 0 0)
(-3.36726e-10 -1.34391e-07 0 2.97939e-10 1.22645e-13 0 0 0 0)
(1.57589e-10 3.19145e-08 0 -1.3108e-10 1.84071e-11 0 0 0 0)
(-8.55707e-11 -7.56632e-09 0 2.63461e-11 1.09654e-11 0 0 0 0)
(2.13317e-11 1.79896e-09 0 -2.00848e-11 2.71806e-12 0 0 0 0)
(-1.19533e-11 -4.25915e-10 0 -8.13152e-13 3.1638e-12 0 0 0 0)
(1.27394e-12 1.01785e-10 0 -4.36391e-12 1.242e-12 0 0 0 0)
(-1.89735e-12 -2.38341e-11 0 -1.76183e-12 1.03365e-12 0 0 0 0)
(-3.79471e-13 5.85803e-12 0 -1.46367e-12 5.73467e-13 0 0 0 0)
(-5.14996e-13 -1.29052e-12 0 -8.94467e-13 4.26961e-13 0 0 0 0)
(-2.98156e-13 3.85569e-13 0 -5.96311e-13 2.90937e-13 0 0 0 0)
(-2.1684e-13 -1.74553e-14 0 -3.79471e-13 1.729e-13 0 0 0 0)
(-5.42101e-14 5.15746e-14 0 -2.71051e-13 9.48004e-14 0 0 0 0)
(-5.42101e-14 4.44291e-15 0 -2.1684e-13 6.74017e-14 0 0 0 0)
(-8.13152e-14 3.80841e-15 0 -1.0842e-13 6.03239e-14 0 0 0 0)
(-5.42101e-14 2.21106e-15 0 -5.42101e-14 4.71903e-14 0 0 0 0)
(-2.71051e-14 2.64721e-15 0 -2.71051e-14 4.31127e-14 0 0 0 0)
(0 8.79664e-15 0 -2.71051e-14 3.2206e-14 0 0 0 0)
(-5.42101e-14 1.51394e-14 0 -5.42101e-14 1.30625e-14 0 0 0 0)
)
;

boundaryField
{
    movingWall
    {
        type            extrapolatedCalculated;
        value           nonuniform List<tensor> 
20
(
(3.5944e-10 -4.58187e-07 0 3.10418e-10 2.40238e-06 0 0 0 0)
(-1.01752e-10 5.66774e-07 0 -1.74816e-09 -5.69635e-07 0 0 0 0)
(-3.36726e-10 -1.34391e-07 0 7.17382e-10 1.35286e-07 0 0 0 0)
(1.57589e-10 3.19145e-08 0 -4.01235e-10 -3.20694e-08 0 0 0 0)
(-8.55707e-11 -7.56632e-09 0 8.69527e-11 7.62823e-09 0 0 0 0)
(2.13317e-11 1.79896e-09 0 -5.88418e-11 -1.80415e-09 0 0 0 0)
(-1.19533e-11 -4.25915e-10 0 1.68754e-12 4.32391e-10 0 0 0 0)
(1.27394e-12 1.01785e-10 0 -1.11022e-11 -1.00489e-10 0 0 0 0)
(-1.89735e-12 -2.38341e-11 0 -3.5083e-12 2.52495e-11 0 0 0 0)
(-3.79471e-13 5.85803e-12 0 -3.41949e-12 -5.15258e-12 0 0 0 0)
(-5.14996e-13 -1.29052e-12 0 -1.9984e-12 1.81742e-12 0 0 0 0)
(-2.98156e-13 3.85569e-13 0 -1.42109e-12 9.52138e-15 0 0 0 0)
(-2.1684e-13 -1.74553e-14 0 -7.99361e-13 2.75138e-13 0 0 0 0)
(-5.42101e-14 5.15746e-14 0 -5.77316e-13 7.93428e-14 0 0 0 0)
(-5.42101e-14 4.44291e-15 0 -5.32907e-13 6.884e-14 0 0 0 0)
(-8.13152e-14 3.80841e-15 0 -3.10862e-13 6.15711e-14 0 0 0 0)
(-5.42101e-14 2.21106e-15 0 -2.22045e-13 5.36063e-14 0 0 0 0)
(-2.71051e-14 2.64721e-15 0 -1.77636e-13 5.27269e-14 0 0 0 0)
(0 8.79664e-15 0 -8.88178e-14 4.30175e-14 0 0 0 0)
(-5.42101e-14 1.51394e-14 0 -1.33227e-13 1.75403e-14 0 0 0 0)
)
;
    }
    fixedWalls
    {
        type            extrapolatedCalculated;
        value           nonuniform List<tensor> 
60
(
(-2.15277e-09 2.49717e-06 0 4.40972e-10 -4.1327e-10 0 0 0 0)
(3.91673e-09 -2.49882e-06 0 -2.95074e-09 -3.97676e-10 0 0 0 0)
(-1.39559e-08 2.49558e-06 0 3.14489e-09 1.95193e-09 0 0 0 0)
(1.64963e-08 -2.49101e-06 0 -1.11846e-09 -2.86668e-09 0 0 0 0)
(-1.84297e-08 2.48411e-06 0 2.89618e-10 3.45354e-09 0 0 0 0)
(1.76548e-08 -2.4772e-06 0 3.87169e-10 -3.61478e-09 0 0 0 0)
(-1.6881e-08 2.46965e-06 0 -6.43366e-10 3.64627e-09 0 0 0 0)
(1.50813e-08 -2.46262e-06 0 7.89597e-10 -3.51564e-09 0 0 0 0)
(-1.37226e-08 2.45559e-06 0 -7.95181e-10 3.36833e-09 0 0 0 0)
(1.19006e-08 -2.44914e-06 0 7.55391e-10 -3.14816e-09 0 0 0 0)
(-1.0701e-08 2.443e-06 0 -6.73669e-10 2.95475e-09 0 0 0 0)
(9.20584e-09 -2.43732e-06 0 5.68908e-10 -2.7272e-09 0 0 0 0)
(-8.42526e-09 2.43209e-06 0 -4.77564e-10 2.55233e-09 0 0 0 0)
(7.29541e-09 -2.42711e-06 0 3.62232e-10 -2.36058e-09 0 0 0 0)
(-6.9762e-09 2.42265e-06 0 -3.1637e-10 2.24653e-09 0 0 0 0)
(6.02993e-09 -2.41813e-06 0 1.78433e-10 -2.11337e-09 0 0 0 0)
(-6.26255e-09 2.41419e-06 0 -2.73734e-10 2.09254e-09 0 0 0 0)
(4.93512e-09 -2.40976e-06 0 -4.13894e-11 -1.93094e-09 0 0 0 0)
(-6.42819e-09 2.40647e-06 0 -1.3114e-09 1.84349e-09 0 0 0 0)
(-3.10418e-10 -2.40238e-06 0 1.68466e-09 -1.02143e-09 0 0 0 0)
(0 -2.05195e-14 0 0 9.9518e-15 0 0 0 0)
(8.88178e-14 -1.92877e-14 0 0 -3.03859e-16 0 0 0 0)
(-4.44089e-14 -1.93041e-14 0 2.71051e-14 1.23238e-14 0 0 0 0)
(-4.44089e-14 -6.8583e-14 0 0 1.56956e-14 0 0 0 0)
(0 -8.20863e-14 0 -2.71051e-14 -3.28814e-16 0 0 0 0)
(0 -6.72677e-14 0 2.71051e-14 -3.99051e-15 0 0 0 0)
(-8.88178e-14 -6.61243e-14 0 0 2.44431e-15 0 0 0 0)
(0 -7.7045e-14 0 -2.71051e-14 6.30089e-15 0 0 0 0)
(-4.44089e-14 -9.13278e-14 0 2.71051e-14 1.6629e-15 0 0 0 0)
(-4.44089e-14 -8.36966e-14 0 0 -1.45132e-14 0 0 0 0)
(0 -3.32749e-14 0 0 -2.07706e-14 0 0 0 0)
(-4.44089e-14 -6.14014e-16 0 0 -7.78362e-15 0 0 0 0)
(0 -2.14037e-15 0 -2.71051e-14 -1.72571e-15 0 0 0 0)
(0 6.28884e-15 0 0 -1.78887e-15 0 0 0 0)
(0 5.01509e-15 0 0 -1.13117e-15 0 0 0 0)
(0 1.08135e-14 0 0 -7.11779e-15 0 0 0 0)
(0 3.34863e-14 0 2.71051e-14 -7.33901e-15 0 0 0 0)
(-8.88178e-14 4.01696e-14 0 0 -3.05868e-16 0 0 0 0)
(0 3.47097e-14 0 2.71051e-14 5.65731e-15 0 0 0 0)
(-1.33227e-13 1.75403e-14 0 -5.42101e-14 1.30625e-14 0 0 0 0)
(2.0112e-11 4.76107e-07 0 -2.15277e-09 2.49717e-06 0 0 0 0)
(3.32606e-10 -5.89067e-07 0 2.23328e-09 -5.92741e-07 0 0 0 0)
(-4.39481e-10 1.39832e-07 0 -8.22453e-10 1.40903e-07 0 0 0 0)
(1.85317e-10 -3.32349e-08 0 4.75353e-10 -3.3413e-08 0 0 0 0)
(-1.0056e-10 7.88284e-09 0 -8.11795e-11 7.96358e-09 0 0 0 0)
(2.13317e-11 -1.87759e-09 0 7.31415e-11 -1.8816e-09 0 0 0 0)
(-1.42844e-11 4.44303e-10 0 4.08562e-12 4.53214e-10 0 0 0 0)
(6.23416e-13 -1.06553e-10 0 1.6076e-11 -1.04389e-10 0 0 0 0)
(-2.54788e-12 2.48427e-11 0 6.57252e-12 2.70009e-11 0 0 0 0)
(-7.58942e-13 -6.21604e-12 0 5.81757e-12 -5.01821e-12 0 0 0 0)
(-7.86047e-13 1.29403e-12 0 3.59712e-12 2.13677e-12 0 0 0 0)
(-4.60786e-13 -4.18044e-13 0 2.66454e-12 1.57912e-13 0 0 0 0)
(-3.25261e-13 2.28546e-14 0 1.82077e-12 4.64597e-13 0 0 0 0)
(-2.98156e-13 -7.11638e-14 0 1.28786e-12 2.4933e-13 0 0 0 0)
(-1.89735e-13 -3.25976e-14 0 7.10543e-13 1.79942e-13 0 0 0 0)
(-1.0842e-13 -1.66007e-14 0 5.32907e-13 1.1894e-13 0 0 0 0)
(-1.0842e-13 -1.43893e-14 0 2.66454e-13 1.13539e-13 0 0 0 0)
(-5.42101e-14 -1.97799e-14 0 8.88178e-14 6.1383e-14 0 0 0 0)
(-2.71051e-14 -1.02159e-14 0 0 3.44194e-14 0 0 0 0)
(0 -1.37347e-14 0 0 2.05195e-14 0 0 0 0)
)
;
    }
    frontAndBack
    {
        type            empty;
    }
}


// ************************************************************************* //
