/*--------------------------------*- C++ -*----------------------------------*\
| =========                 |                                                 |
| \\      /  F ield         | OpenFOAM: The Open Source CFD Toolbox           |
|  \\    /   O peration     | Version:  2506                                  |
|   \\  /    A nd           | Website:  www.openfoam.com                      |
|    \\/     M anipulation  |                                                 |
\*---------------------------------------------------------------------------*/
FoamFile
{
    version     2.0;
    format      ascii;
    arch        "LSB;label=32;scalar=64";
    class       volScalarField;
    location    "4.75";
    object      Lambda2Field;
}
// * * * * * * * * * * * * * * * * * * * * * * * * * * * * * * * * * * * * * //

dimensions      [0 0 -2 0 0 0 0];

internalField   nonuniform List<scalar> 
400
(
2.0995e-16
-1.95992e-16
-1.80185e-17
-3.51584e-18
-7.34307e-20
-4.02079e-20
1.98214e-21
-6.57378e-22
8.18819e-23
-1.47632e-23
2.59855e-24
-2.70794e-25
1.23759e-25
2.22763e-26
1.98152e-26
8.15523e-27
8.13506e-27
1.86647e-27
7.34684e-28
0
1.40537e-15
8.52646e-17
1.06312e-17
-1.95621e-18
-1.9467e-20
-2.15113e-20
3.89076e-22
-2.29974e-22
1.86873e-23
-2.62068e-24
8.7304e-25
1.39012e-25
1.12728e-25
4.90221e-26
2.32933e-26
1.49719e-26
6.4292e-27
0
8.1164e-28
0
1.49995e-15
3.62559e-16
3.30768e-17
2.09305e-18
7.21563e-20
1.7851e-20
-6.68444e-22
2.33261e-22
-2.24636e-23
4.51761e-24
-1.75388e-25
2.61065e-25
6.27389e-26
2.88304e-26
1.17549e-26
5.10093e-27
2.93874e-27
7.34684e-28
-8.9372e-28
-4.01564e-28
5.39419e-16
1.28483e-16
1.05614e-17
5.32399e-19
5.48666e-20
-2.2319e-21
1.07481e-21
-1.52675e-22
2.89469e-23
-3.82006e-24
9.75643e-25
3.57701e-26
1.06048e-25
3.38516e-26
1.56748e-26
1.18641e-26
4.8648e-27
4.43066e-27
-1.10477e-27
2.46351e-28
1.49112e-16
2.85579e-17
2.37911e-18
1.3042e-19
0
2.99937e-21
-5.45041e-22
1.20896e-22
-2.06636e-23
4.12605e-24
-4.18865e-25
2.42794e-25
6.26455e-26
5.06419e-26
2.72881e-26
2.17725e-26
1.17368e-26
1.06408e-26
4.97046e-27
2.27807e-27
-1.69825e-16
-3.10583e-17
-4.51663e-18
-1.59735e-19
-1.29088e-20
-2.38142e-21
2.41886e-22
-7.78542e-23
1.39951e-23
-2.51994e-24
5.78153e-25
1.05015e-26
5.65804e-26
1.46954e-26
1.30672e-26
3.71131e-27
0
-4.09906e-29
0
-1.66385e-27
-2.89704e-16
-6.30718e-17
-6.73386e-18
-3.29442e-19
-2.47699e-20
-9.13284e-22
-3.00157e-22
4.32047e-23
-1.15468e-23
2.6907e-24
-2.95919e-25
1.85481e-25
4.18698e-26
3.18773e-26
1.73744e-26
1.82452e-27
0
-4.82378e-27
1.57297e-27
5.97465e-30
-3.58453e-16
-8.06393e-17
-8.45528e-18
-3.94581e-19
-2.99278e-20
-2.36456e-21
0
-3.88404e-23
5.72941e-24
-1.48864e-24
3.96705e-25
7.31162e-27
6.19369e-26
3.2214e-26
4.70766e-27
1.14475e-26
2.95658e-27
3.8749e-28
1.51715e-29
1.57559e-27
-3.61025e-16
-8.33021e-17
-8.23595e-18
-4.23804e-19
-2.83804e-20
-2.09812e-21
-1.41228e-22
0
-4.36798e-24
4.94101e-25
3.3741e-27
6.0286e-26
1.83671e-26
2.33326e-26
1.13385e-26
6.3068e-27
1.3456e-27
4.28541e-28
1.70861e-30
-1.63237e-27
-3.42896e-16
-7.96708e-17
-7.83232e-18
-3.90193e-19
-2.88546e-20
-1.89979e-21
-9.86058e-23
-1.36621e-23
9.85927e-25
1.14251e-26
1.13302e-25
3.27033e-26
3.60516e-26
1.34053e-26
6.61216e-27
2.85429e-27
1.36513e-27
3.15335e-27
3.54553e-28
2.10634e-28
-3.05116e-16
-7.12933e-17
-6.8593e-18
-3.5307e-19
-2.36934e-20
-1.8403e-21
-8.76635e-23
-8.99042e-24
-1.0466e-24
1.99886e-25
9.6587e-27
1.01336e-25
2.19788e-26
2.02985e-26
6.61216e-27
5.16212e-27
1.11701e-27
0
0
4.3142e-28
-2.56985e-16
-6.01644e-17
-5.69267e-18
-2.92263e-19
-1.98021e-20
-1.21229e-21
-1.40885e-22
8.34687e-24
-3.51307e-24
6.00128e-25
6.00347e-26
5.00572e-26
3.86909e-26
2.30134e-26
1.12037e-26
2.93874e-27
2.37587e-27
0
0
6.05848e-29
-2.14974e-16
-4.98561e-17
-4.79619e-18
-2.34802e-19
-1.63221e-20
-1.24282e-21
2.35007e-23
-2.61747e-23
6.0746e-24
-7.37937e-25
2.75367e-25
1.86591e-27
4.48515e-26
2.14469e-26
1.77281e-26
8.12192e-27
2.93874e-27
7.34684e-28
5.20743e-28
-6.23565e-29
-1.62081e-16
-3.81349e-17
-3.43145e-18
-1.87551e-19
-1.2702e-20
-2.57475e-22
-1.78326e-22
3.05655e-23
-8.08555e-24
1.71258e-24
-2.32191e-25
1.55097e-25
2.39463e-26
1.11316e-26
8.28036e-27
3.13087e-27
2.09613e-27
0
0
0
-1.41109e-16
-3.23348e-17
-3.22442e-18
-1.56385e-19
-8.31157e-21
-1.79926e-21
2.10059e-22
-5.64116e-23
1.07756e-23
-1.79719e-24
4.80652e-25
0
3.21517e-26
1.36058e-26
7.26212e-27
2.36172e-27
1.91048e-27
4.59808e-29
0
0
-7.78117e-17
-1.90962e-17
-1.56693e-18
-7.60914e-20
-1.10103e-20
1.56846e-21
-4.6967e-22
8.89761e-23
-1.32696e-23
2.87764e-24
-3.39226e-25
1.23257e-25
2.22094e-26
4.8494e-27
7.76735e-27
3.5493e-27
4.41188e-28
1.44266e-29
0
0
-1.21638e-16
-2.86322e-17
-2.87099e-18
-1.9377e-19
4.13304e-21
-4.58227e-21
6.28695e-22
-1.22109e-22
2.15592e-23
-3.3571e-24
7.5285e-25
-1.94702e-26
5.163e-26
1.62497e-26
0
1.8824e-27
0
0
0
5.68083e-28
1.99884e-17
-9.45478e-19
5.97731e-19
2.78386e-19
-2.63525e-20
7.00394e-21
-7.59704e-22
1.39536e-22
-1.82032e-23
3.1266e-24
-2.24308e-25
1.2443e-25
2.95338e-26
2.73414e-26
1.27348e-26
3.79367e-27
6.60205e-28
0
7.85819e-29
9.35554e-32
-5.98354e-16
-3.87463e-16
-3.46302e-17
-3.83083e-18
-1.99933e-19
-2.71052e-20
-6.69492e-22
-2.06841e-22
7.82463e-24
-1.88733e-24
4.0129e-25
2.17413e-26
2.99459e-26
1.46781e-26
9.86841e-27
3.82794e-27
2.0043e-27
1.00319e-27
5.76077e-28
8.1665e-28
-7.70846e-16
-4.19138e-16
-3.9927e-17
-4.15852e-18
-1.92021e-19
-3.56768e-20
3.56343e-22
-4.4256e-22
4.306e-23
-8.24538e-24
1.33663e-24
-1.41022e-25
3.65181e-26
-4.99219e-27
1.97533e-27
3.22606e-27
2.10706e-27
6.62931e-28
0
0
)
;

boundaryField
{
    movingWall
    {
        type            calculated;
        value           nonuniform List<scalar> 
20
(
0
0
0
0
0
0
0
0
8.72171e-23
0
2.84421e-24
-4.5903e-25
6.09729e-26
-2.34796e-26
5.71077e-28
2.60711e-27
2.38268e-27
2.64444e-28
0
0
)
;
    }
    fixedWalls
    {
        type            calculated;
        value           nonuniform List<scalar> 
60
(
1.10135e-15
7.37353e-15
7.85213e-15
2.79433e-15
7.31369e-16
-6.47402e-16
-1.30392e-15
-1.71703e-15
-1.76433e-15
-1.70843e-15
-1.53126e-15
-1.30187e-15
-1.09049e-15
-8.25955e-16
-7.17786e-16
-3.95113e-16
-6.21627e-16
1.03467e-16
-3.11451e-15
-4.04616e-15
0
9.23302e-32
0
2.46351e-28
2.22495e-27
-1.80737e-27
5.97465e-30
2.08831e-27
-5.03293e-28
2.10634e-28
0
6.05848e-29
5.8015e-29
0
0
0
9.07647e-28
9.35554e-32
9.40809e-28
0
0
0
0
0
0
0
2.01929e-21
0
1.69771e-22
-1.09799e-23
5.27265e-24
-9.0157e-25
1.47407e-25
-2.75213e-27
9.21715e-27
2.90829e-27
7.92087e-27
1.18193e-27
7.34684e-28
0
)
;
    }
    frontAndBack
    {
        type            empty;
    }
}


// ************************************************************************* //
