/*--------------------------------*- C++ -*----------------------------------*\
| =========                 |                                                 |
| \\      /  F ield         | OpenFOAM: The Open Source CFD Toolbox           |
|  \\    /   O peration     | Version:  2506                                  |
|   \\  /    A nd           | Website:  www.openfoam.com                      |
|    \\/     M anipulation  |                                                 |
\*---------------------------------------------------------------------------*/
FoamFile
{
    version     2.0;
    format      ascii;
    arch        "LSB;label=32;scalar=64";
    class       volVectorField;
    location    "4.75";
    object      LambVectorField;
}
// * * * * * * * * * * * * * * * * * * * * * * * * * * * * * * * * * * * * * //

dimensions      [0 1 -2 0 0 0 0];

internalField   nonuniform List<vector> 
400
(
(-2.96955e-15 -4.75666e-07 0)
(-8.73403e-16 5.89399e-07 -0)
(-4.93027e-17 -1.39962e-07 0)
(-2.78511e-18 3.33417e-08 -0)
(-1.5715e-19 -7.89344e-09 0)
(-8.93406e-21 1.89925e-09 -0)
(-4.98404e-22 -4.39884e-10 0)
(-2.94273e-23 1.1276e-10 -0)
(-1.46104e-24 -2.16443e-11 0)
(-1.09608e-25 8.73681e-12 -0)
(1.91978e-27 3.59379e-13 0)
(6.25158e-28 1.58356e-12 0)
(8.86442e-28 7.63192e-13 0)
(3.82264e-28 6.13265e-13 0)
(1.60984e-28 3.57858e-13 0)
(6.94138e-29 2.33441e-13 0)
(3.48592e-29 1.22809e-13 0)
(1.13543e-29 7.399e-14 0)
(8.79061e-31 1.02159e-14 0)
(7.04574e-31 1.37347e-14 0)
(-2.95656e-15 4.73272e-07 -0)
(-8.75122e-16 -5.89376e-07 0)
(-4.92694e-17 1.4003e-07 -0)
(-2.78683e-18 -3.32686e-08 0)
(-1.56133e-19 7.90414e-09 -0)
(-8.92223e-21 -1.87795e-09 0)
(-4.85964e-22 4.4614e-10 -0)
(-2.97794e-23 -1.05983e-10 0)
(-1.30937e-24 2.52142e-11 -0)
(-1.31493e-25 -5.95968e-12 0)
(2.08545e-27 1.45536e-12 0)
(-1.38866e-27 -3.26163e-13 0)
(1.77643e-28 7.87732e-14 0)
(-7.27009e-29 -3.94355e-14 0)
(4.74496e-29 3.66627e-14 0)
(4.79807e-30 5.13266e-15 0)
(-7.06296e-30 -1.00785e-14 0)
(2.01503e-29 4.08316e-14 0)
(1.30233e-29 4.45277e-14 0)
(1.64281e-30 3.40695e-14 0)
(-2.94847e-15 -4.72591e-07 0)
(-8.71318e-16 5.88096e-07 -0)
(-4.91115e-17 -1.39585e-07 0)
(-2.76222e-18 3.31298e-08 -0)
(-1.56562e-19 -7.86288e-09 0)
(-8.68892e-21 1.86644e-09 -0)
(-5.10083e-22 -4.4276e-10 0)
(-2.56176e-23 1.05218e-10 -0)
(-1.94438e-24 -2.48673e-11 0)
(-2.76709e-26 6.07272e-12 -0)
(-1.42512e-26 -1.30055e-12 0)
(2.02422e-27 4.61821e-13 0)
(3.71083e-28 9.51449e-14 0)
(3.63458e-28 1.38803e-13 0)
(2.41913e-28 1.22795e-13 0)
(1.83819e-28 1.3219e-13 0)
(6.81622e-29 7.41532e-14 0)
(3.55844e-29 5.48266e-14 0)
(3.23396e-29 8.71825e-14 0)
(3.33117e-30 6.90252e-14 0)
(-2.95073e-15 4.7382e-07 -0)
(-8.68367e-16 -5.8747e-07 0)
(-4.88859e-17 1.39409e-07 -0)
(-2.75574e-18 -3.30812e-08 0)
(-1.5459e-19 7.85006e-09 -0)
(-8.81488e-21 -1.86269e-09 0)
(-4.77246e-22 4.42088e-10 -0)
(-3.01297e-23 -1.04858e-10 0)
(-1.14346e-24 2.49348e-11 -0)
(-1.57799e-25 -5.87076e-12 0)
(7.75469e-27 1.47418e-12 0)
(-1.57941e-27 -2.1761e-13 0)
(6.35222e-28 1.4259e-13 0)
(2.22104e-28 6.54662e-14 0)
(1.84133e-28 7.53107e-14 0)
(1.15641e-28 6.33164e-14 0)
(1.25654e-28 9.89627e-14 0)
(4.50114e-29 5.37918e-14 0)
(4.31424e-29 9.36364e-14 0)
(1.08396e-29 6.32201e-14 0)
(-2.93986e-15 -4.73386e-07 0)
(-8.63506e-16 5.86014e-07 -0)
(-4.86195e-17 -1.39045e-07 0)
(-2.73508e-18 3.29903e-08 -0)
(-1.54395e-19 -7.82737e-09 0)
(-8.60764e-21 1.85729e-09 -0)
(-5.00618e-22 -4.40613e-10 0)
(-2.52545e-23 1.04619e-10 -0)
(-1.94416e-24 -2.47324e-11 0)
(-1.64158e-26 5.98095e-12 -0)
(-1.69333e-26 -1.34773e-12 0)
(2.4656e-27 4.21199e-13 0)
(-2.17591e-28 -4.26678e-14 0)
(5.96317e-29 1.67039e-14 0)
(-1.26914e-28 -4.59135e-14 0)
(-1.59843e-28 -7.49833e-14 0)
(-1.20591e-29 -7.45915e-15 0)
(-1.15306e-29 -1.02759e-14 0)
(2.38082e-29 3.74787e-14 0)
(1.16852e-29 5.6941e-14 0)
(-2.92787e-15 4.72771e-07 -0)
(-8.58772e-16 -5.8453e-07 0)
(-4.83339e-17 1.38682e-07 -0)
(-2.72152e-18 -3.29016e-08 0)
(-1.52874e-19 7.80592e-09 -0)
(-8.66774e-21 -1.85179e-09 0)
(-4.75125e-22 4.39504e-10 -0)
(-2.91759e-23 -1.041e-10 0)
(-1.18555e-24 2.48904e-11 -0)
(-1.49204e-25 -5.75161e-12 0)
(7.84349e-27 1.56671e-12 0)
(-1.77321e-27 -2.43149e-13 0)
(8.75869e-28 1.85278e-13 0)
(3.79099e-28 9.94068e-14 0)
(2.31438e-28 7.92565e-14 0)
(2.42467e-28 1.09818e-13 0)
(2.00639e-28 1.29371e-13 0)
(1.25278e-28 1.37038e-13 0)
(4.59262e-29 1.01707e-13 0)
(1.49801e-29 8.90776e-14 0)
(-2.91174e-15 -4.71604e-07 0)
(-8.5353e-16 5.82801e-07 -0)
(-4.80421e-17 -1.38266e-07 0)
(-2.70276e-18 3.28016e-08 -0)
(-1.52303e-19 -7.78167e-09 0)
(-8.52441e-21 1.84611e-09 -0)
(-4.89509e-22 -4.37875e-10 0)
(-2.55851e-23 1.03981e-10 -0)
(-1.82149e-24 -2.45995e-11 0)
(-2.90967e-26 5.89034e-12 -0)
(-1.50758e-26 -1.36106e-12 0)
(1.77831e-27 3.45492e-13 0)
(-3.10237e-28 -6.31706e-14 0)
(2.74246e-28 7.59586e-14 0)
(1.25984e-28 4.50543e-14 0)
(2.97851e-28 1.43492e-13 0)
(1.81071e-28 1.33009e-13 0)
(1.16875e-28 1.56746e-13 0)
(1.03911e-29 3.09271e-14 0)
(8.28698e-30 5.01297e-14 0)
(-2.89611e-15 4.70412e-07 -0)
(-8.48692e-16 -5.81172e-07 0)
(-4.77633e-17 1.37877e-07 -0)
(-2.68831e-18 -3.27084e-08 0)
(-1.51132e-19 7.75948e-09 -0)
(-8.53815e-21 -1.84076e-09 0)
(-4.73199e-22 4.36712e-10 -0)
(-2.81048e-23 -1.03506e-10 0)
(-1.29172e-24 2.47032e-11 -0)
(-1.29651e-25 -5.80652e-12 0)
(4.07251e-27 1.45751e-12 0)
(-1.70177e-27 -2.90597e-13 0)
(4.76998e-28 1.25434e-13 0)
(1.71022e-29 5.26787e-15 0)
(2.86117e-28 1.19472e-13 0)
(1.0653e-28 5.98229e-14 0)
(1.02837e-28 8.19734e-14 0)
(5.97402e-29 8.65843e-14 0)
(1.9331e-29 4.97354e-14 0)
(5.97558e-30 3.10238e-14 0)
(-2.87967e-15 -4.6908e-07 0)
(-8.43847e-16 5.79514e-07 -0)
(-4.74928e-17 -1.37482e-07 0)
(-2.67218e-18 3.26148e-08 -0)
(-1.50453e-19 -7.73706e-09 0)
(-8.44573e-21 1.8356e-09 -0)
(-4.79932e-22 -4.35313e-10 0)
(-2.60126e-23 1.03443e-10 -0)
(-1.67091e-24 -2.44505e-11 0)
(-5.28262e-26 5.96209e-12 -0)
(-1.03747e-26 -1.26901e-12 0)
(1.39467e-27 4.6233e-13 0)
(1.81155e-28 5.52121e-14 0)
(3.31221e-28 1.34398e-13 0)
(2.1587e-28 1.11441e-13 0)
(1.32052e-28 9.78111e-14 0)
(1.02834e-28 1.07234e-13 0)
(3.2051e-29 5.84035e-14 0)
(1.20154e-29 3.20465e-14 0)
(1.99621e-29 8.74307e-14 0)
(-2.86432e-15 4.67807e-07 -0)
(-8.39425e-16 -5.77983e-07 0)
(-4.72423e-17 1.37119e-07 -0)
(-2.65865e-18 -3.25286e-08 0)
(-1.49558e-19 7.71689e-09 -0)
(-8.42784e-21 -1.83059e-09 0)
(-4.71588e-22 4.34321e-10 -0)
(-2.71293e-23 -1.03002e-10 0)
(-1.39923e-24 2.44884e-11 -0)
(-1.0399e-25 -5.70423e-12 0)
(-5.43904e-28 1.48063e-12 -0)
(-6.97303e-28 -2.03652e-13 0)
(3.30803e-28 1.70498e-13 0)
(2.44675e-28 1.42334e-13 0)
(9.74141e-29 7.32422e-14 0)
(6.59632e-29 6.68593e-14 0)
(1.53845e-29 2.32593e-14 0)
(-2.54672e-29 -5.27322e-14 0)
(1.02808e-29 2.73712e-14 0)
(1.22374e-29 5.84847e-14 0)
(-2.84946e-15 -4.66551e-07 0)
(-8.35211e-16 5.76515e-07 -0)
(-4.70062e-17 -1.36772e-07 0)
(-2.6452e-18 3.24463e-08 -0)
(-1.48861e-19 -7.6972e-09 0)
(-8.37501e-21 1.8261e-09 -0)
(-4.71933e-22 -4.33171e-10 0)
(-2.63913e-23 1.0279e-10 -0)
(-1.53011e-24 -2.44157e-11 0)
(-7.59938e-26 5.78596e-12 -0)
(-6.95206e-27 -1.44552e-12 0)
(1.32747e-28 2.6139e-13 0)
(-1.88392e-28 -1.36285e-13 0)
(-4.78486e-29 -4.52448e-14 0)
(2.46961e-29 2.41731e-14 0)
(-1.74677e-30 -2.14113e-15 0)
(2.78013e-29 5.54978e-14 0)
(1.52683e-29 5.85354e-14 0)
(3.31572e-30 1.77652e-14 0)
(2.24463e-30 2.69829e-14 0)
(-2.83557e-15 4.65359e-07 -0)
(-8.3133e-16 -5.75153e-07 0)
(-4.67888e-17 1.3645e-07 -0)
(-2.63296e-18 -3.237e-08 0)
(-1.48198e-19 7.67922e-09 -0)
(-8.33391e-21 -1.82176e-09 0)
(-4.70295e-22 4.32239e-10 -0)
(-2.62155e-23 -1.02486e-10 0)
(-1.51981e-24 2.43663e-11 -0)
(-7.94199e-26 -5.77204e-12 0)
(-5.13521e-27 1.33731e-12 -0)
(-2.65174e-28 -4.03409e-13 0)
(2.19952e-30 -2.86008e-14 -0)
(-4.293e-29 -1.06993e-13 0)
(-2.90299e-29 -6.4378e-14 0)
(6.22168e-30 1.23712e-14 0)
(1.19624e-29 3.65578e-14 0)
(1.09539e-29 7.97575e-14 0)
(9.74324e-31 1.35805e-14 0)
(1.12486e-32 7.32792e-15 0)
(-2.82283e-15 -4.64265e-07 0)
(-8.27762e-16 5.73899e-07 -0)
(-4.65874e-17 -1.36153e-07 0)
(-2.62208e-18 3.23e-08 -0)
(-1.47491e-19 -7.66267e-09 0)
(-8.31607e-21 1.81775e-09 -0)
(-4.64822e-22 -4.3126e-10 0)
(-2.67877e-23 1.02328e-10 -0)
(-1.38701e-24 -2.42238e-11 0)
(-9.77879e-26 5.71658e-12 -0)
(-2.37193e-27 -1.38039e-12 0)
(-6.52507e-28 3.35156e-13 -0)
(-2.75345e-29 5.01492e-14 -0)
(-4.40887e-29 8.00137e-14 -0)
(-8.0605e-30 3.04186e-14 -0)
(-1.10842e-30 2.63599e-14 -0)
(3.89088e-33 2.8787e-16 0)
(-1.93062e-31 4.29713e-15 -0)
(1.48098e-31 -5.02791e-15 -0)
(-1.57935e-31 -2.95155e-14 0)
(-2.81058e-15 4.63197e-07 -0)
(-8.24365e-16 -5.727e-07 0)
(-4.63995e-17 1.3587e-07 -0)
(-2.61082e-18 -3.22331e-08 0)
(-1.47055e-19 7.64685e-09 -0)
(-8.24932e-21 -1.81409e-09 0)
(-4.69674e-22 4.30303e-10 -0)
(-2.54015e-23 -1.02156e-10 0)
(-1.62158e-24 2.42183e-11 -0)
(-5.77341e-26 -5.7762e-12 0)
(-9.0697e-27 1.39873e-12 -0)
(3.03886e-28 -2.37101e-13 -0)
(-1.80077e-28 1.07589e-13 -0)
(-1.25546e-29 1.25257e-14 -0)
(2.06455e-30 -2.88826e-15 -0)
(-4.31679e-30 1.00082e-14 -0)
(-2.26454e-30 8.30146e-15 -0)
(2.83029e-30 -1.16334e-14 -0)
(3.56038e-30 -2.27568e-14 -0)
(2.70696e-31 -1.72176e-14 -0)
(-2.79994e-15 -4.62295e-07 0)
(-8.21346e-16 5.71638e-07 -0)
(-4.62255e-17 -1.35619e-07 0)
(-2.60236e-18 3.21738e-08 -0)
(-1.4627e-19 -7.63282e-09 0)
(-8.2721e-21 1.81082e-09 -0)
(-4.57724e-22 -4.29619e-10 0)
(-2.72002e-23 1.01845e-10 -0)
(-1.27674e-24 -2.42437e-11 0)
(-1.15819e-25 5.705e-12 -0)
(1.18316e-27 -1.3701e-12 -0)
(-1.06255e-27 2.73167e-13 -0)
(2.5033e-28 -1.27141e-13 -0)
(-1.53939e-29 1.00342e-14 -0)
(3.42999e-29 -3.48201e-14 -0)
(2.11966e-29 -3.29222e-14 -0)
(-7.29861e-30 1.89679e-14 -0)
(6.19833e-30 -2.12696e-14 -0)
(4.79929e-30 -2.7888e-14 -0)
(2.31483e-31 -1.84629e-14 -0)
(-2.78867e-15 4.61294e-07 -0)
(-8.18248e-16 -5.70541e-07 0)
(-4.60596e-17 1.3536e-07 -0)
(-2.59104e-18 -3.21124e-08 0)
(-1.46104e-19 7.61821e-09 -0)
(-8.16847e-21 -1.80735e-09 0)
(-4.70081e-22 4.2886e-10 -0)
(-2.46216e-23 -1.01702e-10 0)
(-1.69296e-24 2.40378e-11 -0)
(-4.2568e-26 -5.74442e-12 0)
(-1.14527e-26 1.3672e-12 -0)
(9.53368e-28 -3.48195e-13 -0)
(-2.29254e-28 8.40866e-14 -0)
(2.0969e-28 -1.24701e-13 -0)
(3.40996e-30 -2.82201e-15 -0)
(9.46284e-30 -1.1263e-14 -0)
(2.92902e-29 -5.29074e-14 -0)
(1.25879e-29 -4.04626e-14 -0)
(4.2322e-30 -2.84065e-14 -0)
(4.7585e-31 -1.7602e-14 -0)
(-2.78015e-15 -4.60634e-07 0)
(-8.15654e-16 5.69639e-07 -0)
(-4.58999e-17 -1.35146e-07 0)
(-2.58527e-18 3.2062e-08 -0)
(-1.45086e-19 -7.60625e-09 0)
(-8.2389e-21 1.80464e-09 -0)
(-4.51157e-22 -4.2805e-10 0)
(-2.74645e-23 1.01623e-10 -0)
(-1.19823e-24 -2.39886e-11 0)
(-1.26183e-25 5.8149e-12 -0)
(2.1906e-27 -1.29322e-12 -0)
(-1.88925e-27 4.26386e-13 -0)
(1.62823e-28 -6.6892e-14 -0)
(-3.92394e-29 2.10449e-14 -0)
(1.21726e-28 -9.44117e-14 -0)
(3.89744e-29 -4.23433e-14 -0)
(3.96755e-29 -6.67003e-14 -0)
(1.18852e-29 -4.68962e-14 -0)
(2.13626e-30 -1.6972e-14 -0)
(-5.14558e-31 6.1465e-15 -0)
(-2.76806e-15 4.59475e-07 -0)
(-8.12549e-16 -5.68521e-07 0)
(-4.57556e-17 1.34882e-07 -0)
(-2.57194e-18 -3.19994e-08 0)
(-1.4536e-19 7.59155e-09 -0)
(-8.095e-21 -1.80111e-09 0)
(-4.68941e-22 4.27182e-10 -0)
(-2.43844e-23 -1.01387e-10 0)
(-1.69114e-24 2.40464e-11 -0)
(-4.5606e-26 -5.76992e-12 0)
(-9.85881e-27 1.27207e-12 -0)
(7.77735e-28 -3.69271e-13 -0)
(-1.31287e-28 6.07775e-14 -0)
(-3.46458e-29 2.55e-14 -0)
(-5.10292e-29 4.81466e-14 -0)
(2.3409e-29 -3.09675e-14 -0)
(2.30256e-29 -4.80556e-14 -0)
(2.31323e-29 -8.40059e-14 -0)
(3.16968e-30 -1.74941e-14 -0)
(2.82803e-30 -2.8161e-14 -0)
(-2.76849e-15 -4.60175e-07 0)
(-8.11527e-16 5.68482e-07 -0)
(-4.56506e-17 -1.34975e-07 0)
(-2.57512e-18 3.20458e-08 -0)
(-1.44264e-19 -7.60846e-09 0)
(-8.19623e-21 1.80631e-09 -0)
(-4.50157e-22 -4.2899e-10 0)
(-2.68236e-23 1.01742e-10 -0)
(-1.27769e-24 -2.42045e-11 0)
(-1.05328e-25 5.65791e-12 -0)
(-3.78935e-28 -1.38332e-12 0)
(-6.9233e-28 2.39929e-13 -0)
(1.65941e-28 -1.59382e-13 -0)
(-2.14845e-31 2.86594e-16 -0)
(-3.93436e-29 7.83866e-14 -0)
(-1.69872e-29 3.78071e-14 -0)
(-1.32485e-29 3.92099e-14 -0)
(-2.06458e-29 6.89781e-14 -0)
(-1.25525e-30 5.85156e-15 -0)
(2.62406e-31 -3.02401e-15 -0)
(-2.76197e-15 4.59872e-07 -0)
(-8.08189e-16 -5.67514e-07 0)
(-4.5554e-17 1.34689e-07 -0)
(-2.56921e-18 -3.20456e-08 0)
(-1.44797e-19 7.59267e-09 -0)
(-8.20457e-21 -1.81905e-09 0)
(-4.59526e-22 4.25102e-10 -0)
(-2.66671e-23 -1.06149e-10 0)
(-1.39329e-24 2.20722e-11 -0)
(-9.43141e-26 -7.3217e-12 0)
(-1.7995e-27 3.96058e-13 -0)
(2.33721e-29 -9.8188e-13 -0)
(2.49011e-28 -3.62015e-13 -0)
(6.39949e-29 -3.22625e-13 -0)
(3.80828e-29 -2.21283e-13 -0)
(1.72751e-29 -1.12229e-13 -0)
(7.56133e-30 -5.64212e-14 -0)
(3.92186e-30 -2.97523e-14 -0)
(3.861e-30 -3.59017e-14 -0)
(3.04103e-30 -6.93496e-14 -0)
)
;

boundaryField
{
    movingWall
    {
        type            calculated;
        value           nonuniform List<vector> 
20
(
(0 4.58498e-07 -0)
(0 -5.68522e-07 -0)
(0 1.35109e-07 -0)
(0 -3.23157e-08 -0)
(0 7.65327e-09 -0)
(0 -1.8578e-09 -0)
(0 4.27603e-10 -0)
(0 -1.12888e-10 -0)
(0 2.03258e-11 -0)
(0 -9.27752e-12 -0)
(0 -7.07877e-13 -0)
(0 -1.80665e-12 -0)
(0 -7.81905e-13 -0)
(0 -6.28891e-13 -0)
(0 -5.3735e-13 -0)
(0 -3.14671e-13 -0)
(0 -2.24256e-13 -0)
(0 -1.80283e-13 -0)
(0 -9.76145e-14 -0)
(0 -1.48366e-13 -0)
)
;
    }
    fixedWalls
    {
        type            calculated;
        value           nonuniform List<vector> 
60
(
(0 -2.49673e-06 -0)
(0 2.49587e-06 -0)
(0 -2.49243e-06 -0)
(0 2.4899e-06 -0)
(0 -2.48382e-06 -0)
(0 2.47759e-06 -0)
(0 -2.4703e-06 -0)
(0 2.4634e-06 -0)
(0 -2.45639e-06 -0)
(0 2.4499e-06 -0)
(0 -2.44367e-06 -0)
(0 2.43789e-06 -0)
(0 -2.43257e-06 -0)
(0 2.42748e-06 -0)
(0 -2.42296e-06 -0)
(0 2.41831e-06 -0)
(0 -2.41447e-06 -0)
(0 2.40972e-06 -0)
(0 -2.40778e-06 -0)
(0 2.40407e-06 -0)
(0 2.05195e-14 -0)
(0 1.92877e-14 -0)
(0 4.64091e-14 -0)
(0 6.8583e-14 -0)
(0 5.49812e-14 -0)
(0 9.43728e-14 -0)
(0 6.61243e-14 -0)
(0 4.99399e-14 -0)
(0 1.18433e-13 -0)
(0 8.36966e-14 -0)
(0 3.32749e-14 -0)
(0 6.14014e-16 -0)
(0 -2.49647e-14 -0)
(0 -6.28884e-15 -0)
(0 -5.01509e-15 -0)
(0 -1.08135e-14 -0)
(0 -6.38121e-15 -0)
(0 -4.01696e-14 -0)
(0 -7.60468e-15 -0)
(0 -7.17504e-14 -0)
(0 -4.7826e-07 -0)
(0 5.913e-07 -0)
(0 -1.40654e-07 -0)
(0 3.37102e-08 -0)
(0 -7.96402e-09 -0)
(0 1.95073e-09 -0)
(0 -4.40217e-10 -0)
(0 1.22629e-10 -0)
(0 -1.82702e-11 -0)
(0 1.20336e-11 -0)
(0 2.30309e-12 -0)
(0 3.08258e-12 -0)
(0 1.79791e-12 -0)
(0 1.35902e-12 -0)
(0 7.4314e-13 -0)
(0 5.49508e-13 -0)
(0 2.80843e-13 -0)
(0 1.08598e-13 -0)
(0 1.02159e-14 -0)
(0 1.37347e-14 -0)
)
;
    }
    frontAndBack
    {
        type            empty;
    }
}


// ************************************************************************* //
