/*--------------------------------*- C++ -*----------------------------------*\
| =========                 |                                                 |
| \\      /  F ield         | OpenFOAM: The Open Source CFD Toolbox           |
|  \\    /   O peration     | Version:  2506                                  |
|   \\  /    A nd           | Website:  www.openfoam.com                      |
|    \\/     M anipulation  |                                                 |
\*---------------------------------------------------------------------------*/
FoamFile
{
    version     2.0;
    format      ascii;
    arch        "LSB;label=32;scalar=64";
    class       volScalarField;
    location    "4.75";
    object      pNear;
}
// * * * * * * * * * * * * * * * * * * * * * * * * * * * * * * * * * * * * * //

dimensions      [0 2 -2 0 0 0 0];

internalField   nonuniform List<scalar> 
400
(
2.34694e-16
0
7.99827e-13
3.40487e-14
1.5163e-13
2.86604e-14
2.71232e-14
5.28213e-15
0
0
0
0
0
0
0
0
0
0
0
0
0
3.0256e-13
2.19637e-14
3.26853e-14
3.57408e-14
2.02564e-14
1.08289e-14
1.15825e-15
0
0
0
0
0
0
0
0
0
0
0
0
2.76028e-14
0
0
0
1.12861e-14
0
0
0
0
0
0
0
0
0
0
0
0
0
0
0
1.23515e-14
2.40251e-12
0
4.37822e-14
0
0
0
0
0
0
0
0
0
0
0
0
0
0
0
0
0
0
0
0
0
0
0
0
0
0
0
0
0
0
0
0
0
0
0
0
1.16546e-13
2.56275e-12
0
4.52341e-14
0
0
0
0
0
0
0
0
0
0
0
0
0
0
0
0
0
0
0
0
0
0
0
0
0
0
0
0
0
0
0
0
0
0
0
0
1.83482e-13
2.12601e-12
0
2.94994e-14
0
0
0
0
0
0
0
0
0
0
0
0
0
0
0
0
0
0
0
0
0
0
0
0
0
0
0
0
0
0
0
0
0
0
0
0
2.09641e-13
1.60551e-12
0
1.0004e-14
0
0
0
0
0
0
0
0
0
0
0
0
0
0
0
0
0
0
0
0
0
0
0
0
0
0
0
0
0
0
0
0
0
0
0
0
2.0164e-13
1.17668e-12
0
0
0
0
0
0
0
0
0
0
0
0
0
0
0
0
0
0
0
0
0
0
0
0
0
0
0
0
0
0
0
0
0
0
0
0
0
0
1.76563e-13
8.77399e-13
0
0
0
0
0
0
0
0
0
0
0
0
0
0
0
0
0
0
0
0
0
0
0
0
0
0
0
0
0
0
0
0
0
0
0
0
0
0
1.58773e-13
6.67539e-13
0
0
0
0
0
0
0
0
0
0
0
0
0
0
0
0
0
0
0
0
0
0
0
0
0
0
0
0
0
0
0
0
0
0
0
0
0
0
1.68955e-13
4.59704e-13
0
0
0
0
0
0
0
0
0
0
0
0
0
0
0
0
0
0
0
0
4.58916e-14
0
3.08059e-14
5.6227e-16
0
0
0
0
0
0
0
0
0
0
0
0
0
0
7.18424e-14
0
6.49674e-13
0
1.04587e-13
4.01994e-15
9.97125e-15
0
0
0
0
0
0
0
0
0
0
0
0
0
)
;

boundaryField
{
    movingWall
    {
        type            zeroGradient;
    }
    fixedWalls
    {
        type            calculated;
        value           nonuniform List<scalar> 
60
(
1.9949e-16
4.17562e-15
2.11747e-14
1.27865e-14
1.93346e-14
8.1582e-14
4.50041e-14
1.28437e-13
5.89684e-14
1.46749e-13
6.16921e-14
1.41148e-13
5.67304e-14
1.23594e-13
5.03003e-14
1.11141e-13
4.91592e-14
1.18269e-13
3.61197e-14
6.10661e-14
0
0
0
0
0
0
0
0
0
0
0
0
0
0
0
0
0
0
0
0
1.9949e-16
1.20009e-13
5.64986e-13
1.66553e-13
1.15548e-13
4.68753e-14
2.40776e-14
7.76597e-15
7.92319e-16
0
0
0
0
0
0
0
0
0
0
0
)
;
    }
    frontAndBack
    {
        type            empty;
    }
}


// ************************************************************************* //
