/*--------------------------------*- C++ -*----------------------------------*\
| =========                 |                                                 |
| \\      /  F ield         | OpenFOAM: The Open Source CFD Toolbox           |
|  \\    /   O peration     | Version:  2506                                  |
|   \\  /    A nd           | Website:  www.openfoam.com                      |
|    \\/     M anipulation  |                                                 |
\*---------------------------------------------------------------------------*/
FoamFile
{
    version     2.0;
    format      ascii;
    arch        "LSB;label=32;scalar=64";
    class       volScalarField;
    location    "4.75";
    object      QField;
}
// * * * * * * * * * * * * * * * * * * * * * * * * * * * * * * * * * * * * * //

dimensions      [0 0 -2 0 0 0 0];

internalField   nonuniform List<scalar> 
400
(
-2.09958e-16
1.96202e-16
1.81937e-17
3.55454e-18
8.19773e-20
4.07633e-20
-2.02551e-21
6.62629e-22
-8.34246e-23
1.49468e-23
-2.6721e-24
2.72864e-25
-1.29094e-25
-3.4973e-26
-2.24886e-26
-9.75942e-27
-9.11539e-27
-2.43487e-27
-1.02599e-27
0
-1.40551e-15
-8.52874e-17
-1.06384e-17
1.95949e-18
1.9708e-20
2.15203e-20
-3.89934e-22
2.30145e-22
-1.87328e-23
2.65544e-24
-8.83606e-25
-1.421e-25
-1.13492e-25
-5.08785e-26
-2.55288e-26
-1.50697e-26
-7.55882e-27
0
-1.54441e-27
0
-1.50157e-15
-3.64256e-16
-3.3139e-17
-2.10315e-18
-7.24403e-20
-1.78812e-20
6.88707e-22
-2.3234e-22
2.27534e-23
-4.55632e-24
1.9748e-25
-2.61628e-25
-6.80114e-26
-3.14577e-26
-1.24765e-26
-6.81827e-27
-3.08412e-27
-9.30448e-28
2.08449e-27
8.02211e-28
-5.40614e-16
-1.30908e-16
-1.06805e-17
-5.43967e-19
-5.58037e-20
2.48704e-21
-1.08218e-21
1.53849e-22
-2.89305e-23
3.83537e-24
-9.79047e-25
-3.99599e-26
-1.07298e-25
-3.49759e-26
-1.70412e-26
-1.44067e-26
-5.67158e-27
-4.75723e-27
1.80334e-27
-8.50858e-28
-1.49918e-16
-3.15684e-17
-2.51417e-18
-1.46438e-19
1.35679e-21
-3.08885e-21
5.72346e-22
-1.21853e-22
2.07332e-23
-4.14268e-24
4.1951e-25
-2.42794e-25
-6.41186e-26
-5.06419e-26
-2.72881e-26
-2.17725e-26
-1.24704e-26
-1.06408e-26
-4.97046e-27
-2.27807e-27
1.70147e-16
4.40715e-17
4.99251e-18
2.4012e-19
1.68891e-20
2.67749e-21
-2.50729e-22
7.8784e-23
-1.41951e-23
2.53837e-24
-5.80214e-25
-1.13932e-26
-5.65804e-26
-1.46954e-26
-1.32307e-26
-3.71131e-27
0
9.38871e-28
-4.11347e-28
1.67977e-27
2.9067e-16
7.48331e-17
7.1657e-18
4.02059e-19
2.81949e-20
1.21717e-21
3.2103e-22
-4.41701e-23
1.16755e-23
-2.71685e-24
3.01463e-25
-1.86584e-25
-4.33458e-26
-3.48098e-26
-1.80635e-26
-3.47333e-27
0
4.95072e-27
-1.57297e-27
-1.32506e-28
3.60206e-16
8.99163e-17
8.78918e-18
4.50446e-19
3.26761e-20
2.56772e-21
3.22506e-24
3.93974e-23
-5.88324e-24
1.51483e-24
-4.14765e-25
-1.55125e-26
-6.62942e-26
-3.46121e-26
-6.3018e-27
-1.40493e-26
-2.95658e-27
-5.33557e-28
2.11152e-28
-1.57559e-27
3.63102e-16
9.08544e-17
8.50867e-18
4.68983e-19
3.05257e-20
2.28353e-21
1.54048e-22
1.39037e-24
4.49798e-24
-5.26094e-25
-6.25404e-27
-6.60043e-26
-2.52424e-26
-2.89821e-26
-1.15448e-26
-8.61023e-27
-2.65079e-27
-5.61108e-28
3.543e-29
1.63513e-27
3.45305e-16
8.52556e-17
8.02946e-18
4.22771e-19
3.04559e-20
2.01604e-21
1.11971e-22
1.40842e-23
-1.09478e-24
-1.98851e-26
-1.36855e-25
-4.70545e-26
-4.11721e-26
-1.41057e-26
-7.44398e-27
-5.79241e-27
-1.36513e-27
-4.66566e-27
-5.10376e-28
3.93382e-28
3.07502e-16
7.57245e-17
7.01708e-18
3.78812e-19
2.49118e-20
1.9443e-21
9.44403e-23
1.00219e-23
1.15037e-24
-2.18129e-25
-1.14319e-26
-1.02858e-25
-2.83347e-26
-2.07923e-26
-7.1484e-27
-5.44469e-27
-1.81179e-27
-8.48658e-29
0
-1.12598e-27
2.59395e-16
6.33818e-17
5.80425e-18
3.10455e-19
2.0696e-20
1.27378e-21
1.48262e-22
-8.29932e-24
3.58425e-24
-6.1592e-25
-6.50275e-26
-5.63358e-26
-4.32686e-26
-2.76587e-26
-1.33984e-26
-4.6505e-27
-3.96354e-27
-1.10142e-27
0
2.10975e-28
2.17172e-16
5.25069e-17
4.89e-18
2.49892e-19
1.70292e-20
1.3043e-21
-2.28016e-23
2.67914e-23
-6.11788e-24
7.50196e-25
-2.77118e-25
-6.95139e-27
-4.81258e-26
-2.21015e-26
-1.99373e-26
-9.10658e-27
-3.25264e-27
-1.0317e-27
-1.23706e-27
6.53346e-29
1.64208e-16
4.00844e-17
3.4982e-18
1.98268e-19
1.32348e-20
2.90847e-22
1.82896e-22
-3.06189e-23
8.14799e-24
-1.72572e-24
2.35678e-25
-1.70011e-25
-3.45746e-26
-1.30617e-26
-1.09024e-26
-4.02735e-27
-2.66888e-27
0
0
0
1.4301e-16
3.40982e-17
3.28712e-18
1.66385e-19
8.76804e-21
1.84171e-21
-2.09307e-22
5.69179e-23
-1.07962e-23
1.80902e-24
-4.80743e-25
6.13415e-27
-3.40992e-26
-1.43492e-26
-7.5018e-27
-2.73522e-27
-1.91048e-27
-3.67594e-28
0
0
7.97331e-17
2.03801e-17
1.60985e-18
8.2882e-20
1.13531e-20
-1.56961e-21
4.72632e-22
-8.89989e-23
1.32776e-23
-2.87823e-24
3.4634e-25
-1.23989e-25
-2.5089e-26
-5.0103e-27
-8.491e-27
-3.5493e-27
-5.69327e-28
-1.02951e-28
0
0
1.23382e-16
3.00232e-17
2.9222e-18
2.01741e-19
-4.18677e-21
4.62113e-21
-6.28468e-22
1.2237e-22
-2.15599e-23
3.35954e-24
-7.5402e-25
2.09441e-26
-5.17611e-26
-1.63902e-26
0
-1.8824e-27
0
0
0
-5.68083e-28
-2.09201e-17
1.77862e-18
-6.10132e-19
-2.79654e-19
2.65145e-20
-7.00607e-21
7.60471e-22
-1.39601e-22
1.82145e-23
-3.13671e-24
2.28657e-25
-1.27006e-25
-3.27841e-26
-3.0021e-26
-1.29376e-26
-4.12804e-27
-1.3929e-27
1.36655e-27
-2.40277e-28
8.29058e-30
5.99348e-16
3.88912e-16
3.46766e-17
3.84154e-18
2.00383e-19
2.71484e-20
6.77207e-22
2.07554e-22
-8.00859e-24
1.89223e-24
-4.20147e-25
-2.5251e-26
-3.15319e-26
-1.55032e-26
-1.04752e-26
-4.15262e-27
-2.6841e-27
-1.00319e-27
-5.76077e-28
-8.1665e-28
7.71523e-16
4.19221e-16
4.00403e-17
4.18626e-18
1.98405e-19
3.61898e-20
-3.84151e-22
4.45765e-22
-4.39528e-23
8.35663e-24
-1.37421e-24
1.43175e-25
-4.41155e-26
8.84017e-27
-2.69045e-27
-4.49234e-27
-2.43833e-27
-1.09682e-27
2.38433e-28
1.12591e-28
)
;

boundaryField
{
    movingWall
    {
        type            calculated;
        value           nonuniform List<scalar> 
20
(
1.00574e-15
1.04877e-15
5.08555e-17
7.75142e-18
5.15862e-21
6.73686e-20
-4.44977e-21
1.00203e-21
-1.31525e-22
2.19867e-23
-3.51495e-24
5.45088e-25
-7.36142e-26
2.54736e-26
-1.36416e-27
-3.82277e-27
-2.41505e-27
-9.58925e-28
7.81299e-28
1.06612e-27
)
;
    }
    fixedWalls
    {
        type            calculated;
        value           nonuniform List<scalar> 
60
(
-1.10029e-15
-7.37493e-15
-7.87556e-15
-2.8334e-15
-7.8309e-16
8.95276e-16
1.52734e-15
1.89145e-15
1.90642e-15
1.81259e-15
1.61415e-15
1.36151e-15
1.13997e-15
8.61957e-16
7.50781e-16
4.18729e-16
6.47742e-16
-1.09268e-16
3.14399e-15
4.04752e-15
0
-2.69881e-29
-2.40502e-29
-6.97023e-28
-2.22495e-27
1.8233e-27
-2.17098e-28
-2.08831e-27
2.4016e-27
6.44517e-28
0
3.45662e-28
-5.8015e-29
0
0
0
-9.07647e-28
2.71666e-29
-9.40809e-28
-7.89414e-28
1.07517e-15
1.1184e-15
5.3081e-17
9.60629e-18
-1.60891e-19
9.71922e-20
-8.28912e-21
1.64787e-21
-2.32074e-22
3.99708e-23
-6.33439e-24
1.04113e-24
-1.92728e-25
1.73096e-26
-1.09794e-26
-4.04885e-27
-8.47585e-27
-1.57077e-27
-9.3294e-28
0
)
;
    }
    frontAndBack
    {
        type            empty;
    }
}


// ************************************************************************* //
