/*--------------------------------*- C++ -*----------------------------------*\
| =========                 |                                                 |
| \\      /  F ield         | OpenFOAM: The Open Source CFD Toolbox           |
|  \\    /   O peration     | Version:  2506                                  |
|   \\  /    A nd           | Website:  www.openfoam.com                      |
|    \\/     M anipulation  |                                                 |
\*---------------------------------------------------------------------------*/
FoamFile
{
    version     2.0;
    format      ascii;
    arch        "LSB;label=32;scalar=64";
    class       volVectorField;
    location    "4.75";
    object      UNear;
}
// * * * * * * * * * * * * * * * * * * * * * * * * * * * * * * * * * * * * * //

dimensions      [0 1 -1 0 0 0 0];

internalField   nonuniform List<vector> 
400
(
(-1 6.24292e-09 0)
(-1 -1.48185e-09 0)
(-1 3.52258e-10 0)
(-1 -8.35324e-11 0)
(-1 1.9909e-11 0)
(-1 -4.704e-12 0)
(-1 1.13303e-12 0)
(-1 -2.60973e-13 0)
(-1 6.75024e-14 0)
(-1 -1.25455e-14 0)
(-1 5.34194e-15 0)
(-1 3.9478e-16 0)
(-1 1.16149e-15 0)
(-1 6.23326e-16 0)
(-1 4.49855e-16 0)
(-1 2.9735e-16 0)
(-1 2.83848e-16 0)
(-1 1.53457e-16 0)
(-1 8.60486e-17 0)
(-1 5.12987e-17 0)
(-1 -6.24706e-09 0)
(-1 1.48483e-09 0)
(-1 -3.51849e-10 0)
(-1 8.37675e-11 0)
(-1 -1.97533e-11 0)
(-1 4.75106e-12 0)
(-1 -1.08926e-12 0)
(-1 2.80982e-13 0)
(-1 -5.19297e-14 0)
(-1 2.20638e-14 0)
(-1 1.43294e-15 0)
(-1 4.25758e-15 0)
(-1 2.25512e-15 0)
(-1 1.84354e-15 0)
(-1 1.29422e-15 0)
(-1 9.34812e-16 0)
(-1 7.00792e-16 0)
(-1 4.93497e-16 0)
(-1 2.92476e-16 0)
(-1 4.82193e-17 0)
(-1 6.23895e-09 0)
(-1 -1.48159e-09 0)
(-1 3.51839e-10 0)
(-1 -8.33758e-11 0)
(-1 1.99115e-11 0)
(-1 -4.65535e-12 0)
(-1 1.15205e-12 0)
(-1 -2.43472e-13 0)
(-1 7.81903e-14 0)
(-1 -4.55659e-15 0)
(-1 1.09578e-14 0)
(-1 4.38312e-15 0)
(-1 3.90018e-15 0)
(-1 2.61852e-15 0)
(-1 1.97005e-15 0)
(-1 1.39057e-15 0)
(-1 9.19208e-16 0)
(-1 6.49035e-16 0)
(-1 3.70942e-16 0)
(-1 4.82601e-17 0)
(-1 -6.22754e-09 0)
(-1 1.47815e-09 0)
(-1 -3.50665e-10 0)
(-1 8.33024e-11 0)
(-1 -1.96928e-11 0)
(-1 4.73235e-12 0)
(-1 -1.07953e-12 0)
(-1 2.87339e-13 0)
(-1 -4.58579e-14 0)
(-1 2.68787e-14 0)
(-1 5.26035e-15 0)
(-1 7.25801e-15 0)
(-1 4.45489e-15 0)
(-1 3.39266e-15 0)
(-1 2.44498e-15 0)
(-1 1.8264e-15 0)
(-1 1.26971e-15 0)
(-1 8.36771e-16 0)
(-1 4.60743e-16 0)
(-1 1.71457e-16 0)
(-1 6.21028e-09 0)
(-1 -1.47352e-09 0)
(-1 3.49667e-10 0)
(-1 -8.29055e-11 0)
(-1 1.97251e-11 0)
(-1 -4.63451e-12 0)
(-1 1.13618e-12 0)
(-1 -2.41395e-13 0)
(-1 7.86079e-14 0)
(-1 -2.74468e-15 0)
(-1 1.25643e-14 0)
(-1 5.85376e-15 0)
(-1 5.09965e-15 0)
(-1 3.56993e-15 0)
(-1 2.76421e-15 0)
(-1 2.13171e-15 0)
(-1 1.61669e-15 0)
(-1 1.1221e-15 0)
(-1 6.35245e-16 0)
(-1 2.05216e-16 0)
(-1 -6.193e-09 0)
(-1 1.46917e-09 0)
(-1 -3.48522e-10 0)
(-1 8.27169e-11 0)
(-1 -1.95843e-11 0)
(-1 4.68073e-12 0)
(-1 -1.08105e-12 0)
(-1 2.80266e-13 0)
(-1 -4.76308e-14 0)
(-1 2.59413e-14 0)
(-1 5.00635e-15 0)
(-1 7.29269e-15 0)
(-1 4.72733e-15 0)
(-1 3.81361e-15 0)
(-1 2.92011e-15 0)
(-1 2.20789e-15 0)
(-1 1.55088e-15 0)
(-1 9.14184e-16 0)
(-1 4.51556e-16 0)
(-1 1.68169e-16 0)
(-1 6.17413e-09 0)
(-1 -1.46453e-09 0)
(-1 3.47461e-10 0)
(-1 -8.23971e-11 0)
(-1 1.9572e-11 0)
(-1 -4.61749e-12 0)
(-1 1.11792e-12 0)
(-1 -2.46056e-13 0)
(-1 7.40457e-14 0)
(-1 -4.93974e-15 0)
(-1 1.10765e-14 0)
(-1 5.14717e-15 0)
(-1 4.91111e-15 0)
(-1 3.61047e-15 0)
(-1 2.79627e-15 0)
(-1 2.07573e-15 0)
(-1 1.36134e-15 0)
(-1 7.45632e-16 0)
(-1 3.35987e-16 0)
(-1 1.65311e-16 0)
(-1 -6.15654e-09 0)
(-1 1.46031e-09 0)
(-1 -3.4642e-10 0)
(-1 8.21901e-11 0)
(-1 -1.94771e-11 0)
(-1 4.63838e-12 0)
(-1 -1.08355e-12 0)
(-1 2.71529e-13 0)
(-1 -5.22895e-14 0)
(-1 2.23285e-14 0)
(-1 2.79417e-15 0)
(-1 5.85611e-15 0)
(-1 3.80278e-15 0)
(-1 3.24652e-15 0)
(-1 2.39485e-15 0)
(-1 1.78075e-15 0)
(-1 1.25452e-15 0)
(-1 6.89966e-16 0)
(-1 3.88677e-16 0)
(-1 1.92612e-16 0)
(-1 6.13898e-09 0)
(-1 -1.45613e-09 0)
(-1 3.45446e-10 0)
(-1 -8.19315e-11 0)
(-1 1.94457e-11 0)
(-1 -4.60108e-12 0)
(-1 1.1025e-12 0)
(-1 -2.51468e-13 0)
(-1 6.83384e-14 0)
(-1 -8.86034e-15 0)
(-1 8.17542e-15 0)
(-1 3.0166e-15 0)
(-1 3.28106e-15 0)
(-1 2.46448e-15 0)
(-1 1.93708e-15 0)
(-1 1.35007e-15 0)
(-1 9.58972e-16 0)
(-1 5.48785e-16 0)
(-1 3.74937e-16 0)
(-1 2.2832e-16 0)
(-1 -6.12285e-09 0)
(-1 1.45233e-09 0)
(-1 -3.44534e-10 0)
(-1 8.17327e-11 0)
(-1 -1.93806e-11 0)
(-1 4.60389e-12 0)
(-1 -1.0858e-12 0)
(-1 2.63386e-13 0)
(-1 -5.71386e-14 0)
(-1 1.82303e-14 0)
(-1 -3.67347e-16 0)
(-1 3.424e-15 0)
(-1 1.94022e-15 0)
(-1 1.71902e-15 0)
(-1 1.33003e-15 0)
(-1 9.86597e-16 0)
(-1 6.61435e-16 0)
(-1 4.82954e-16 0)
(-1 3.75605e-16 0)
(-1 2.09241e-16 0)
(-1 6.10749e-09 0)
(-1 -1.44872e-09 0)
(-1 3.43684e-10 0)
(-1 -8.15255e-11 0)
(-1 1.93396e-11 0)
(-1 -4.58629e-12 0)
(-1 1.08948e-12 0)
(-1 -2.56749e-13 0)
(-1 6.26689e-14 0)
(-1 -1.31342e-14 0)
(-1 4.80939e-15 0)
(-1 5.07852e-16 0)
(-1 1.38234e-15 0)
(-1 1.05755e-15 0)
(-1 1.02163e-15 0)
(-1 8.15817e-16 0)
(-1 5.00945e-16 0)
(-1 2.60839e-16 0)
(-1 1.86641e-16 0)
(-1 8.31871e-17 0)
(-1 -6.09331e-09 0)
(-1 1.44541e-09 0)
(-1 -3.42901e-10 0)
(-1 8.13394e-11 0)
(-1 -1.92986e-11 0)
(-1 4.57466e-12 0)
(-1 -1.08804e-12 0)
(-1 2.55796e-13 0)
(-1 -6.23735e-14 0)
(-1 1.37594e-14 0)
(-1 -3.83994e-15 0)
(-1 6.57332e-16 0)
(-1 -7.6904e-17 0)
(-1 4.01239e-16 0)
(-1 4.5093e-16 0)
(-1 5.02918e-16 0)
(-1 3.27218e-16 0)
(-1 1.3734e-16 0)
(-1 7.17442e-17 0)
(-1 1.53504e-18 0)
(-1 6.08022e-09 0)
(-1 -1.44235e-09 0)
(-1 3.42169e-10 0)
(-1 -8.11791e-11 0)
(-1 1.9248e-11 0)
(-1 -4.57493e-12 0)
(-1 1.07782e-12 0)
(-1 -2.61784e-13 0)
(-1 5.72578e-14 0)
(-1 -1.7106e-14 0)
(-1 1.7183e-15 0)
(-1 -1.94688e-15 0)
(-1 -5.49051e-16 0)
(-1 -5.51015e-16 0)
(-1 -2.64986e-16 0)
(-1 -4.20495e-17 0)
(-1 1.35161e-17 0)
(-1 -4.49282e-17 0)
(-1 -2.94552e-17 0)
(-1 5.35094e-18 0)
(-1 -6.06778e-09 0)
(-1 1.43944e-09 0)
(-1 -3.41499e-10 0)
(-1 8.09982e-11 0)
(-1 -1.92308e-11 0)
(-1 4.54735e-12 0)
(-1 -1.09149e-12 0)
(-1 2.48655e-13 0)
(-1 -6.69567e-14 0)
(-1 9.99517e-15 0)
(-1 -6.48422e-15 0)
(-1 -1.28167e-15 0)
(-1 -1.67375e-15 0)
(-1 -1.00231e-15 0)
(-1 -7.14807e-16 0)
(-1 -4.31326e-16 0)
(-1 -2.72788e-16 0)
(-1 -2.4329e-16 0)
(-1 -1.56454e-16 0)
(-1 -1.57221e-17 0)
(-1 6.05662e-09 0)
(-1 -1.43683e-09 0)
(-1 3.40848e-10 0)
(-1 -8.08847e-11 0)
(-1 1.91633e-11 0)
(-1 -4.56815e-12 0)
(-1 1.06542e-12 0)
(-1 -2.67075e-13 0)
(-1 5.26628e-14 0)
(-1 -2.03013e-14 0)
(-1 -8.63556e-16 0)
(-1 -3.88975e-15 0)
(-1 -1.96892e-15 0)
(-1 -1.53414e-15 0)
(-1 -9.85059e-16 0)
(-1 -6.4384e-16 0)
(-1 -3.84787e-16 0)
(-1 -2.91418e-16 0)
(-1 -1.72091e-16 0)
(-1 -1.25377e-17 0)
(-1 -6.04532e-09 0)
(-1 1.43416e-09 0)
(-1 -3.40276e-10 0)
(-1 8.06865e-11 0)
(-1 -1.91783e-11 0)
(-1 4.51958e-12 0)
(-1 -1.09612e-12 0)
(-1 2.42097e-13 0)
(-1 -7.04288e-14 0)
(-1 7.41032e-15 0)
(-1 -8.37676e-15 0)
(-1 -2.73803e-15 0)
(-1 -2.7264e-15 0)
(-1 -1.68154e-15 0)
(-1 -1.20834e-15 0)
(-1 -8.40173e-16 0)
(-1 -5.53613e-16 0)
(-1 -3.11099e-16 0)
(-1 -1.48987e-16 0)
(-1 -2.70338e-17 0)
(-1 6.03548e-09 0)
(-1 -1.43188e-09 0)
(-1 3.39631e-10 0)
(-1 -8.06333e-11 0)
(-1 1.90746e-11 0)
(-1 -4.5654e-12 0)
(-1 1.05398e-12 0)
(-1 -2.70259e-13 0)
(-1 4.99499e-14 0)
(-1 -2.16999e-14 0)
(-1 -1.69391e-15 0)
(-1 -4.43083e-15 0)
(-1 -2.43412e-15 0)
(-1 -1.86455e-15 0)
(-1 -1.28932e-15 0)
(-1 -9.20438e-16 0)
(-1 -5.94832e-16 0)
(-1 -2.53435e-16 0)
(-1 -1.2587e-16 0)
(-1 -8.37157e-17 0)
(-1 -6.02439e-09 0)
(-1 1.42923e-09 0)
(-1 -3.39228e-10 0)
(-1 8.03747e-11 0)
(-1 -1.91477e-11 0)
(-1 4.49444e-12 0)
(-1 -1.09776e-12 0)
(-1 2.40507e-13 0)
(-1 -7.03283e-14 0)
(-1 7.90409e-15 0)
(-1 -7.75019e-15 0)
(-1 -2.10613e-15 0)
(-1 -2.16012e-15 0)
(-1 -1.35866e-15 0)
(-1 -1.05987e-15 0)
(-1 -7.55921e-16 0)
(-1 -4.79144e-16 0)
(-1 -2.75365e-16 0)
(-1 -1.81186e-16 0)
(-1 -1.00424e-16 0)
(-1 6.01617e-09 0)
(-1 -1.42753e-09 0)
(-1 3.38214e-10 0)
(-1 -8.03576e-11 0)
(-1 1.89609e-11 0)
(-1 -4.53755e-12 0)
(-1 1.04934e-12 0)
(-1 -2.63642e-13 0)
(-1 5.27873e-14 0)
(-1 -1.86161e-14 0)
(-1 2.73932e-16 0)
(-1 -2.88557e-15 0)
(-1 -1.04115e-15 0)
(-1 -7.49648e-16 0)
(-1 -5.01917e-16 0)
(-1 -4.49311e-16 0)
(-1 -3.37887e-16 0)
(-1 -2.99309e-16 0)
(-1 -2.14516e-16 0)
(-1 -8.67743e-17 0)
(-1 -6.00596e-09 0)
(-1 1.42409e-09 0)
(-1 -3.38216e-10 0)
(-1 8.01736e-11 0)
(-1 -1.90706e-11 0)
(-1 4.51037e-12 0)
(-1 -1.08098e-12 0)
(-1 2.51222e-13 0)
(-1 -6.31239e-14 0)
(-1 1.28814e-14 0)
(-1 -4.54354e-15 0)
(-1 -2.38034e-17 0)
(-1 -6.87846e-16 0)
(-1 -1.98357e-16 0)
(-1 -1.721e-16 0)
(-1 -1.53928e-16 0)
(-1 -1.34016e-16 0)
(-1 -1.31817e-16 0)
(-1 -1.07544e-16 0)
(-1 -4.38508e-17 0)
)
;

boundaryField
{
    movingWall
    {
        type            fixedValue;
        value           uniform (-1 -0 -0);
    }
    fixedWalls
    {
        type            calculated;
        value           nonuniform List<vector> 
60
(
(-1 2.49717e-09 0)
(-1 -2.49882e-09 0)
(-1 2.49558e-09 0)
(-1 -2.49101e-09 0)
(-1 2.48411e-09 0)
(-1 -2.4772e-09 0)
(-1 2.46965e-09 0)
(-1 -2.46262e-09 0)
(-1 2.45559e-09 0)
(-1 -2.44914e-09 0)
(-1 2.443e-09 0)
(-1 -2.43732e-09 0)
(-1 2.43209e-09 0)
(-1 -2.42711e-09 0)
(-1 2.42265e-09 0)
(-1 -2.41813e-09 0)
(-1 2.41419e-09 0)
(-1 -2.40976e-09 0)
(-1 2.40647e-09 0)
(-1 -2.40238e-09 0)
(-1 2.05195e-17 0)
(-1 1.92877e-17 0)
(-1 1.93041e-17 0)
(-1 6.8583e-17 0)
(-1 8.20863e-17 0)
(-1 6.72677e-17 0)
(-1 6.61243e-17 0)
(-1 7.7045e-17 0)
(-1 9.13278e-17 0)
(-1 8.36966e-17 0)
(-1 3.32749e-17 0)
(-1 6.14014e-19 0)
(-1 2.14037e-18 0)
(-1 -6.28884e-18 0)
(-1 -5.01509e-18 0)
(-1 -1.08135e-17 0)
(-1 -3.34863e-17 0)
(-1 -4.01696e-17 0)
(-1 -3.47097e-17 0)
(-1 -1.75403e-17 0)
(-1 2.49717e-09 0)
(-1 -5.92741e-10 0)
(-1 1.40903e-10 0)
(-1 -3.3413e-11 0)
(-1 7.96358e-12 0)
(-1 -1.8816e-12 0)
(-1 4.53214e-13 0)
(-1 -1.04389e-13 0)
(-1 2.70009e-14 0)
(-1 -5.01821e-15 0)
(-1 2.13677e-15 0)
(-1 1.57912e-16 0)
(-1 4.64597e-16 0)
(-1 2.4933e-16 0)
(-1 1.79942e-16 0)
(-1 1.1894e-16 0)
(-1 1.13539e-16 0)
(-1 6.1383e-17 0)
(-1 3.44194e-17 0)
(-1 2.05195e-17 0)
)
;
    }
    frontAndBack
    {
        type            empty;
    }
}


// ************************************************************************* //
