/*--------------------------------*- C++ -*----------------------------------*\
| =========                 |                                                 |
| \\      /  F ield         | OpenFOAM: The Open Source CFD Toolbox           |
|  \\    /   O peration     | Version:  2506                                  |
|   \\  /    A nd           | Website:  www.openfoam.com                      |
|    \\/     M anipulation  |                                                 |
\*---------------------------------------------------------------------------*/
FoamFile
{
    version     2.0;
    format      ascii;
    arch        "LSB;label=32;scalar=64";
    class       volVectorField;
    location    "4.75";
    object      vorticityField;
}
// * * * * * * * * * * * * * * * * * * * * * * * * * * * * * * * * * * * * * //

dimensions      [0 0 -1 0 0 0 0];

internalField   nonuniform List<vector> 
400
(
(0 -0 4.75666e-07)
(0 -0 -5.89399e-07)
(0 -0 1.39962e-07)
(0 -0 -3.33417e-08)
(0 -0 7.89344e-09)
(0 -0 -1.89925e-09)
(0 -0 4.39884e-10)
(0 -0 -1.1276e-10)
(0 -0 2.16443e-11)
(0 -0 -8.73681e-12)
(0 -0 -3.59379e-13)
(0 -0 -1.58356e-12)
(0 -0 -7.63192e-13)
(0 -0 -6.13265e-13)
(0 -0 -3.57858e-13)
(0 -0 -2.33441e-13)
(0 -0 -1.22809e-13)
(0 -0 -7.399e-14)
(0 -0 -1.02159e-14)
(0 -0 -1.37347e-14)
(0 -0 -4.73272e-07)
(0 -0 5.89376e-07)
(0 -0 -1.4003e-07)
(0 -0 3.32686e-08)
(0 -0 -7.90414e-09)
(0 -0 1.87795e-09)
(0 -0 -4.4614e-10)
(0 -0 1.05983e-10)
(0 -0 -2.52142e-11)
(0 -0 5.95968e-12)
(0 -0 -1.45536e-12)
(0 -0 3.26163e-13)
(0 -0 -7.87732e-14)
(0 -0 3.94355e-14)
(0 -0 -3.66627e-14)
(0 -0 -5.13266e-15)
(0 -0 1.00785e-14)
(0 -0 -4.08316e-14)
(0 -0 -4.45277e-14)
(0 -0 -3.40695e-14)
(0 -0 4.72591e-07)
(0 -0 -5.88096e-07)
(0 -0 1.39585e-07)
(0 -0 -3.31298e-08)
(0 -0 7.86288e-09)
(0 -0 -1.86644e-09)
(0 -0 4.4276e-10)
(0 -0 -1.05218e-10)
(0 -0 2.48673e-11)
(0 -0 -6.07272e-12)
(0 -0 1.30055e-12)
(0 -0 -4.61821e-13)
(0 -0 -9.51449e-14)
(0 -0 -1.38803e-13)
(0 -0 -1.22795e-13)
(0 -0 -1.3219e-13)
(0 -0 -7.41532e-14)
(0 -0 -5.48266e-14)
(0 -0 -8.71825e-14)
(0 -0 -6.90252e-14)
(0 -0 -4.7382e-07)
(0 -0 5.8747e-07)
(0 -0 -1.39409e-07)
(0 -0 3.30812e-08)
(0 -0 -7.85006e-09)
(0 -0 1.86269e-09)
(0 -0 -4.42088e-10)
(0 -0 1.04858e-10)
(0 -0 -2.49348e-11)
(0 -0 5.87076e-12)
(0 -0 -1.47418e-12)
(0 -0 2.1761e-13)
(0 -0 -1.4259e-13)
(0 -0 -6.54662e-14)
(0 -0 -7.53107e-14)
(0 -0 -6.33164e-14)
(0 -0 -9.89627e-14)
(0 -0 -5.37918e-14)
(0 -0 -9.36364e-14)
(0 -0 -6.32201e-14)
(0 -0 4.73386e-07)
(0 -0 -5.86014e-07)
(0 -0 1.39045e-07)
(0 -0 -3.29903e-08)
(0 -0 7.82737e-09)
(0 -0 -1.85729e-09)
(0 -0 4.40613e-10)
(0 -0 -1.04619e-10)
(0 -0 2.47324e-11)
(0 -0 -5.98095e-12)
(0 -0 1.34773e-12)
(0 -0 -4.21199e-13)
(0 -0 4.26678e-14)
(0 -0 -1.67039e-14)
(0 -0 4.59135e-14)
(0 -0 7.49833e-14)
(0 -0 7.45915e-15)
(0 -0 1.02759e-14)
(0 -0 -3.74787e-14)
(0 -0 -5.6941e-14)
(0 -0 -4.72771e-07)
(0 -0 5.8453e-07)
(0 -0 -1.38682e-07)
(0 -0 3.29016e-08)
(0 -0 -7.80592e-09)
(0 -0 1.85179e-09)
(0 -0 -4.39504e-10)
(0 -0 1.041e-10)
(0 -0 -2.48904e-11)
(0 -0 5.75161e-12)
(0 -0 -1.56671e-12)
(0 -0 2.43149e-13)
(0 -0 -1.85278e-13)
(0 -0 -9.94068e-14)
(0 -0 -7.92565e-14)
(0 -0 -1.09818e-13)
(0 -0 -1.29371e-13)
(0 -0 -1.37038e-13)
(0 -0 -1.01707e-13)
(0 -0 -8.90776e-14)
(0 -0 4.71604e-07)
(0 -0 -5.82801e-07)
(0 -0 1.38266e-07)
(0 -0 -3.28016e-08)
(0 -0 7.78167e-09)
(0 -0 -1.84611e-09)
(0 -0 4.37875e-10)
(0 -0 -1.03981e-10)
(0 -0 2.45995e-11)
(0 -0 -5.89034e-12)
(0 -0 1.36106e-12)
(0 -0 -3.45492e-13)
(0 -0 6.31706e-14)
(0 -0 -7.59586e-14)
(0 -0 -4.50543e-14)
(0 -0 -1.43492e-13)
(0 -0 -1.33009e-13)
(0 -0 -1.56746e-13)
(0 -0 -3.09271e-14)
(0 -0 -5.01297e-14)
(0 -0 -4.70412e-07)
(0 -0 5.81172e-07)
(0 -0 -1.37877e-07)
(0 -0 3.27084e-08)
(0 -0 -7.75948e-09)
(0 -0 1.84076e-09)
(0 -0 -4.36712e-10)
(0 -0 1.03506e-10)
(0 -0 -2.47032e-11)
(0 -0 5.80652e-12)
(0 -0 -1.45751e-12)
(0 -0 2.90597e-13)
(0 -0 -1.25434e-13)
(0 -0 -5.26787e-15)
(0 -0 -1.19472e-13)
(0 -0 -5.98229e-14)
(0 -0 -8.19734e-14)
(0 -0 -8.65843e-14)
(0 -0 -4.97354e-14)
(0 -0 -3.10238e-14)
(0 -0 4.6908e-07)
(0 -0 -5.79514e-07)
(0 -0 1.37482e-07)
(0 -0 -3.26148e-08)
(0 -0 7.73706e-09)
(0 -0 -1.8356e-09)
(0 -0 4.35313e-10)
(0 -0 -1.03443e-10)
(0 -0 2.44505e-11)
(0 -0 -5.96209e-12)
(0 -0 1.26901e-12)
(0 -0 -4.6233e-13)
(0 -0 -5.52121e-14)
(0 -0 -1.34398e-13)
(0 -0 -1.11441e-13)
(0 -0 -9.78111e-14)
(0 -0 -1.07234e-13)
(0 -0 -5.84035e-14)
(0 -0 -3.20465e-14)
(0 -0 -8.74307e-14)
(0 -0 -4.67807e-07)
(0 -0 5.77983e-07)
(0 -0 -1.37119e-07)
(0 -0 3.25286e-08)
(0 -0 -7.71689e-09)
(0 -0 1.83059e-09)
(0 -0 -4.34321e-10)
(0 -0 1.03002e-10)
(0 -0 -2.44884e-11)
(0 -0 5.70423e-12)
(0 -0 -1.48063e-12)
(0 -0 2.03652e-13)
(0 -0 -1.70498e-13)
(0 -0 -1.42334e-13)
(0 -0 -7.32422e-14)
(0 -0 -6.68593e-14)
(0 -0 -2.32593e-14)
(0 -0 5.27322e-14)
(0 -0 -2.73712e-14)
(0 -0 -5.84847e-14)
(0 -0 4.66551e-07)
(0 -0 -5.76515e-07)
(0 -0 1.36772e-07)
(0 -0 -3.24463e-08)
(0 -0 7.6972e-09)
(0 -0 -1.8261e-09)
(0 -0 4.33171e-10)
(0 -0 -1.0279e-10)
(0 -0 2.44157e-11)
(0 -0 -5.78596e-12)
(0 -0 1.44552e-12)
(0 -0 -2.6139e-13)
(0 -0 1.36285e-13)
(0 -0 4.52448e-14)
(0 -0 -2.41731e-14)
(0 -0 2.14113e-15)
(0 -0 -5.54978e-14)
(0 -0 -5.85354e-14)
(0 -0 -1.77652e-14)
(0 -0 -2.69829e-14)
(0 -0 -4.65359e-07)
(0 -0 5.75153e-07)
(0 -0 -1.3645e-07)
(0 -0 3.237e-08)
(0 -0 -7.67922e-09)
(0 -0 1.82176e-09)
(0 -0 -4.32239e-10)
(0 -0 1.02486e-10)
(0 -0 -2.43663e-11)
(0 -0 5.77204e-12)
(0 -0 -1.33731e-12)
(0 -0 4.03409e-13)
(0 -0 2.86008e-14)
(0 -0 1.06993e-13)
(0 -0 6.4378e-14)
(0 -0 -1.23712e-14)
(0 -0 -3.65578e-14)
(0 -0 -7.97575e-14)
(0 -0 -1.35805e-14)
(0 -0 -7.32792e-15)
(0 -0 4.64265e-07)
(0 -0 -5.73899e-07)
(0 -0 1.36153e-07)
(0 -0 -3.23e-08)
(0 -0 7.66267e-09)
(0 -0 -1.81775e-09)
(0 -0 4.3126e-10)
(0 -0 -1.02328e-10)
(0 -0 2.42238e-11)
(0 -0 -5.71658e-12)
(0 -0 1.38039e-12)
(0 -0 -3.35156e-13)
(0 -0 -5.01492e-14)
(0 -0 -8.00137e-14)
(0 -0 -3.04186e-14)
(0 -0 -2.63599e-14)
(0 -0 -2.8787e-16)
(0 -0 -4.29713e-15)
(0 -0 5.02791e-15)
(0 -0 2.95155e-14)
(0 -0 -4.63197e-07)
(0 -0 5.727e-07)
(0 -0 -1.3587e-07)
(0 -0 3.22331e-08)
(0 -0 -7.64685e-09)
(0 -0 1.81409e-09)
(0 -0 -4.30303e-10)
(0 -0 1.02156e-10)
(0 -0 -2.42183e-11)
(0 -0 5.7762e-12)
(0 -0 -1.39873e-12)
(0 -0 2.37101e-13)
(0 -0 -1.07589e-13)
(0 -0 -1.25257e-14)
(0 -0 2.88826e-15)
(0 -0 -1.00082e-14)
(0 -0 -8.30146e-15)
(0 -0 1.16334e-14)
(0 -0 2.27568e-14)
(0 -0 1.72176e-14)
(0 -0 4.62295e-07)
(0 -0 -5.71638e-07)
(0 -0 1.35619e-07)
(0 -0 -3.21738e-08)
(0 -0 7.63282e-09)
(0 -0 -1.81082e-09)
(0 -0 4.29619e-10)
(0 -0 -1.01845e-10)
(0 -0 2.42437e-11)
(0 -0 -5.705e-12)
(0 -0 1.3701e-12)
(0 -0 -2.73167e-13)
(0 -0 1.27141e-13)
(0 -0 -1.00342e-14)
(0 -0 3.48201e-14)
(0 -0 3.29222e-14)
(0 -0 -1.89679e-14)
(0 -0 2.12696e-14)
(0 -0 2.7888e-14)
(0 -0 1.84629e-14)
(0 -0 -4.61294e-07)
(0 -0 5.70541e-07)
(0 -0 -1.3536e-07)
(0 -0 3.21124e-08)
(0 -0 -7.61821e-09)
(0 -0 1.80735e-09)
(0 -0 -4.2886e-10)
(0 -0 1.01702e-10)
(0 -0 -2.40378e-11)
(0 -0 5.74442e-12)
(0 -0 -1.3672e-12)
(0 -0 3.48195e-13)
(0 -0 -8.40866e-14)
(0 -0 1.24701e-13)
(0 -0 2.82201e-15)
(0 -0 1.1263e-14)
(0 -0 5.29074e-14)
(0 -0 4.04626e-14)
(0 -0 2.84065e-14)
(0 -0 1.7602e-14)
(0 -0 4.60634e-07)
(0 -0 -5.69639e-07)
(0 -0 1.35146e-07)
(0 -0 -3.2062e-08)
(0 -0 7.60625e-09)
(0 -0 -1.80464e-09)
(0 -0 4.2805e-10)
(0 -0 -1.01623e-10)
(0 -0 2.39886e-11)
(0 -0 -5.8149e-12)
(0 -0 1.29322e-12)
(0 -0 -4.26386e-13)
(0 -0 6.6892e-14)
(0 -0 -2.10449e-14)
(0 -0 9.44117e-14)
(0 -0 4.23433e-14)
(0 -0 6.67003e-14)
(0 -0 4.68962e-14)
(0 -0 1.6972e-14)
(0 -0 -6.1465e-15)
(0 -0 -4.59475e-07)
(0 -0 5.68521e-07)
(0 -0 -1.34882e-07)
(0 -0 3.19994e-08)
(0 -0 -7.59155e-09)
(0 -0 1.80111e-09)
(0 -0 -4.27182e-10)
(0 -0 1.01387e-10)
(0 -0 -2.40464e-11)
(0 -0 5.76992e-12)
(0 -0 -1.27207e-12)
(0 -0 3.69271e-13)
(0 -0 -6.07775e-14)
(0 -0 -2.55e-14)
(0 -0 -4.81466e-14)
(0 -0 3.09675e-14)
(0 -0 4.80556e-14)
(0 -0 8.40059e-14)
(0 -0 1.74941e-14)
(0 -0 2.8161e-14)
(0 -0 4.60175e-07)
(0 -0 -5.68482e-07)
(0 -0 1.34975e-07)
(0 -0 -3.20458e-08)
(0 -0 7.60846e-09)
(0 -0 -1.80631e-09)
(0 -0 4.2899e-10)
(0 -0 -1.01742e-10)
(0 -0 2.42045e-11)
(0 -0 -5.65791e-12)
(0 -0 1.38332e-12)
(0 -0 -2.39929e-13)
(0 -0 1.59382e-13)
(0 -0 -2.86594e-16)
(0 -0 -7.83866e-14)
(0 -0 -3.78071e-14)
(0 -0 -3.92099e-14)
(0 -0 -6.89781e-14)
(0 -0 -5.85156e-15)
(0 -0 3.02401e-15)
(0 -0 -4.59872e-07)
(0 -0 5.67514e-07)
(0 -0 -1.34689e-07)
(0 -0 3.20456e-08)
(0 -0 -7.59267e-09)
(0 -0 1.81905e-09)
(0 -0 -4.25102e-10)
(0 -0 1.06149e-10)
(0 -0 -2.20722e-11)
(0 -0 7.3217e-12)
(0 -0 -3.96058e-13)
(0 -0 9.8188e-13)
(0 -0 3.62015e-13)
(0 -0 3.22625e-13)
(0 -0 2.21283e-13)
(0 -0 1.12229e-13)
(0 -0 5.64212e-14)
(0 -0 2.97523e-14)
(0 -0 3.59017e-14)
(0 -0 6.93496e-14)
)
;

boundaryField
{
    movingWall
    {
        type            calculated;
        value           nonuniform List<vector> 
20
(
(0 -0 -4.58498e-07)
(0 -0 5.68522e-07)
(0 -0 -1.35109e-07)
(0 -0 3.23157e-08)
(0 -0 -7.65327e-09)
(0 -0 1.8578e-09)
(0 -0 -4.27603e-10)
(0 -0 1.12888e-10)
(0 -0 -2.03258e-11)
(0 -0 9.27752e-12)
(0 -0 7.07877e-13)
(0 -0 1.80665e-12)
(0 -0 7.81905e-13)
(0 -0 6.28891e-13)
(0 -0 5.3735e-13)
(0 -0 3.14671e-13)
(0 -0 2.24256e-13)
(0 -0 1.80283e-13)
(0 -0 9.76145e-14)
(0 -0 1.48366e-13)
)
;
    }
    fixedWalls
    {
        type            calculated;
        value           nonuniform List<vector> 
60
(
(0 -0 2.49673e-06)
(0 -0 -2.49587e-06)
(0 -0 2.49243e-06)
(0 -0 -2.4899e-06)
(0 -0 2.48382e-06)
(0 -0 -2.47759e-06)
(0 -0 2.4703e-06)
(0 -0 -2.4634e-06)
(0 -0 2.45639e-06)
(0 -0 -2.4499e-06)
(0 -0 2.44367e-06)
(0 -0 -2.43789e-06)
(0 -0 2.43257e-06)
(0 -0 -2.42748e-06)
(0 -0 2.42296e-06)
(0 -0 -2.41831e-06)
(0 -0 2.41447e-06)
(0 -0 -2.40972e-06)
(0 -0 2.40778e-06)
(0 -0 -2.40407e-06)
(0 -0 -2.05195e-14)
(0 -0 -1.92877e-14)
(0 -0 -4.64091e-14)
(0 -0 -6.8583e-14)
(0 -0 -5.49812e-14)
(0 -0 -9.43728e-14)
(0 -0 -6.61243e-14)
(0 -0 -4.99399e-14)
(0 -0 -1.18433e-13)
(0 -0 -8.36966e-14)
(0 -0 -3.32749e-14)
(0 -0 -6.14014e-16)
(0 -0 2.49647e-14)
(0 -0 6.28884e-15)
(0 -0 5.01509e-15)
(0 -0 1.08135e-14)
(0 -0 6.38121e-15)
(0 -0 4.01696e-14)
(0 -0 7.60468e-15)
(0 -0 7.17504e-14)
(0 -0 4.7826e-07)
(0 -0 -5.913e-07)
(0 -0 1.40654e-07)
(0 -0 -3.37102e-08)
(0 -0 7.96402e-09)
(0 -0 -1.95073e-09)
(0 -0 4.40217e-10)
(0 -0 -1.22629e-10)
(0 -0 1.82702e-11)
(0 -0 -1.20336e-11)
(0 -0 -2.30309e-12)
(0 -0 -3.08258e-12)
(0 -0 -1.79791e-12)
(0 -0 -1.35902e-12)
(0 -0 -7.4314e-13)
(0 -0 -5.49508e-13)
(0 -0 -2.80843e-13)
(0 -0 -1.08598e-13)
(0 -0 -1.02159e-14)
(0 -0 -1.37347e-14)
)
;
    }
    frontAndBack
    {
        type            empty;
    }
}


// ************************************************************************* //
