/*--------------------------------*- C++ -*----------------------------------*\
| =========                 |                                                 |
| \\      /  F ield         | OpenFOAM: The Open Source CFD Toolbox           |
|  \\    /   O peration     | Version:  2506                                  |
|   \\  /    A nd           | Website:  www.openfoam.com                      |
|    \\/     M anipulation  |                                                 |
\*---------------------------------------------------------------------------*/
FoamFile
{
    version     2.0;
    format      ascii;
    arch        "LSB;label=32;scalar=64";
    class       volScalarField;
    location    "1.5";
    object      Lambda2Field;
}
// * * * * * * * * * * * * * * * * * * * * * * * * * * * * * * * * * * * * * //

dimensions      [0 0 -2 0 0 0 0];

internalField   nonuniform List<scalar> 
400
(
0.0367326
0.152976
0.340308
0.460684
0.526406
0.549409
0.556926
0.585832
0.70158
0.831801
0.97779
1.45381
1.99549
2.15914
2.06031
1.7002
1.1751
0.618464
0.15914
0.00204665
0.150019
0.368703
0.572594
0.721952
0.820533
0.878875
0.899308
0.872967
0.796236
0.692688
0.641397
0.758104
1.09586
1.65441
2.15625
2.25428
1.79452
1.02337
0.373416
0.0401263
0.329055
0.51824
0.683865
0.808367
0.918139
0.999487
1.03769
1.01377
0.932144
0.849881
0.874421
1.15317
1.78373
2.69823
3.40509
3.48385
2.83055
1.72788
0.841265
0.171029
0.47395
0.630886
0.737972
0.83815
0.952328
1.06663
1.15935
1.21622
1.26554
1.41996
1.87046
2.90818
4.61283
6.30291
7.23411
7.03895
5.32173
2.84744
1.0844
0.330442
0.573308
0.685397
0.759376
0.86057
0.990738
1.15313
1.33427
1.54913
1.88933
2.66452
4.48699
7.91759
12.3634
16.2298
18.7112
19.8717
17.8484
9.88136
1.52836
0.326863
0.615169
0.682685
0.74545
0.853036
1.008
1.22767
1.5267
1.99714
2.92747
5.18607
9.7675
16.173
20.9252
22.3184
24.0749
28.7196
32.7502
30.3157
14.179
0
0.620442
0.633515
0.691543
0.809728
0.991012
1.26918
1.70199
2.50426
4.25479
8.28801
14.5436
17.913
11.9523
1.07519
-2.88011
1.84778
20.3433
39.5509
39.8434
2.36996
0.606301
0.550629
0.600232
0.725722
0.927906
1.25294
1.80433
2.85385
5.2403
10.1639
13.8961
6.83638
-14.6118
-37.8758
-48.8783
-46.5602
-28.4962
10.8217
48.0509
42.5251
0.580266
0.448626
0.482811
0.604043
0.816182
1.16283
1.77521
2.94843
5.4619
9.59906
8.49267
-7.39326
-38.3478
-62.5302
-67.4754
-63.3515
-59.8778
-40.1389
27.0821
94.7846
0.54272
0.344128
0.357622
0.466017
0.669996
1.01195
1.6202
2.76867
5.06179
7.72192
3.67472
-16.6128
-49.8866
-67.7073
-62.2195
-49.4025
-46.775
-54.2194
-14.9173
105.073
0.489076
0.250779
0.244653
0.335535
0.524084
0.846302
1.40798
2.43649
4.33564
6.4724
2.7479
-15.7151
-46.0926
-62.1759
-55.1595
-37.3171
-27.2257
-37.3331
-31.7852
83.8838
0.40222
0.174255
0.156532
0.231242
0.403844
0.703657
1.20752
2.0869
3.59905
5.52957
3.86337
-7.08414
-28.7115
-43.7499
-40.4293
-25.5632
-15.8689
-18.9459
-26.2462
48.8029
0.213893
0.10956
0.0965353
0.164489
0.328281
0.612779
1.06293
1.78752
2.96051
4.50075
4.50544
0
-10.4207
-19.4845
-18.719
-10.8508
-5.21689
-6.83457
-15.4464
16.141
-0.0125618
0.0395484
0.0633365
0.1408
0.309771
0.591121
1.00553
1.589
2.42447
3.49064
4.09261
2.63674
-0.724889
-4.41355
-3.80479
-0.344601
1.85454
1.10324
-4.92545
0
-0.195696
-0.0349291
0.0518174
0.164148
0.355307
0.642952
1.03196
1.51945
2.09921
2.74426
3.20393
2.83124
1.40284
0.284138
0.885564
3.08718
5.25433
3.4029
-3.69422
0
-0.126874
-0.0469905
0.092688
0.259724
0.479257
0.778835
1.15604
1.5762
1.99853
2.34324
2.43857
2.07161
1.16905
0.334916
0.730505
2.40796
4.63825
-0.552524
-9.5261
1.49205
0
0
0.0042399
0.0665965
0.315787
0.66361
1.06763
1.48143
1.82995
1.99356
1.80894
1.14708
0.0373788
-0.942374
-1.11726
-0.187783
0
-13.9511
-1.72976
25.5159
0
0.0917072
0.254497
0.0698655
0.171983
0.579237
1.1407
1.64931
1.95372
1.88129
1.24409
0
-1.53284
-3.85701
-6.22037
-7.76731
-14.8887
-36.5849
0
257.007
9.07089
0
0
0
0
0
0
0
0.179998
0.336568
0
0
-2.13654
-5.63808
-9.47861
-15.364
-28.1122
-18.525
-134.88
951.331
3237.56
-591.873
-683.037
-365.118
-169.917
-92.2489
-60.8665
-43.4457
-31.5983
-23.8864
-19.6804
-17.3756
-17.9771
-15.8995
-32.9805
0
0
0
-218.764
1599.08
)
;

boundaryField
{
    movingWall
    {
        type            calculated;
        value           nonuniform List<scalar> 
20
(
1577.31
0
0
0
0
0
0
0
0
0
0
0
0
0
0
0
-106.831
0
-1326.48
2869.94
)
;
    }
    fixedWalls
    {
        type            calculated;
        value           nonuniform List<scalar> 
60
(
0
0.0635375
0.258212
0.384171
0.512096
0.621847
0.732169
0.852872
0.945605
0.833176
0.67506
0.473334
0.164009
0
-0.456922
0
0
0
28.862
6862.58
0
0
0.0441111
0.0602996
0
0
0
21.9305
50.7785
73.5992
49.0519
0
0
0
0
0
42.0341
735.208
3129.6
2147.54
0
0.0665533
0.208859
0.341944
0.385396
0.383746
0.423552
0.624984
0.894308
1.083
1.25755
1.90315
3.07737
3.27217
2.37128
1.49018
0.87204
0.472355
0.0746872
0.00114542
)
;
    }
    frontAndBack
    {
        type            empty;
    }
}


// ************************************************************************* //
