/*--------------------------------*- C++ -*----------------------------------*\
| =========                 |                                                 |
| \\      /  F ield         | OpenFOAM: The Open Source CFD Toolbox           |
|  \\    /   O peration     | Version:  2506                                  |
|   \\  /    A nd           | Website:  www.openfoam.com                      |
|    \\/     M anipulation  |                                                 |
\*---------------------------------------------------------------------------*/
FoamFile
{
    version     2.0;
    format      ascii;
    arch        "LSB;label=32;scalar=64";
    class       volScalarField;
    location    "0.2";
    object      p;
}
// * * * * * * * * * * * * * * * * * * * * * * * * * * * * * * * * * * * * * //

dimensions      [0 2 -2 0 0 0 0];

internalField   nonuniform List<scalar> 
400
(
1.51772e-07
-0.00582662
-0.0129608
-0.0184091
-0.0204237
-0.0182285
-0.0117639
-0.00147507
0.0118433
0.0271518
0.0432434
0.0588185
0.0725713
0.0832995
0.0900436
0.0922592
0.0900208
0.0842426
0.0768832
0.0710723
0.00577341
-0.000222931
-0.00580538
-0.00954087
-0.0105949
-0.00842716
-0.00296399
0.00547953
0.0163069
0.0287137
0.0417496
0.0543837
0.0655826
0.0744053
0.0801159
0.0823126
0.0810764
0.0770568
0.0712792
0.0653258
0.0133229
0.00502571
-0.000999648
-0.00442457
-0.005272
-0.00326138
0.00160569
0.00903099
0.0185049
0.0293511
0.040766
0.0518691
0.0617671
0.0696348
0.0748059
0.0768783
0.0758439
0.0720909
0.0658138
0.0575479
0.020123
0.00868539
0.00121949
-0.00267191
-0.00372305
-0.0018845
0.00273319
0.00978703
0.0187828
0.0290971
0.0399935
0.0506549
0.0602334
0.0679165
0.0730043
0.075004
0.0737705
0.0694637
0.0616144
0.0501194
0.0244832
0.00976125
0.000582395
-0.00399118
-0.00530402
-0.00350725
0.00117618
0.00833692
0.0174648
0.027952
0.0390878
0.0500724
0.0600512
0.0681675
0.0736294
0.0758021
0.0743755
0.0692993
0.0595394
0.0445572
0.025159
0.00713844
-0.00380908
-0.00906122
-0.0105137
-0.00849953
-0.00335477
0.00443265
0.0143174
0.0256835
0.0378183
0.0499077
0.0610524
0.0703075
0.0767394
0.0795228
0.0781468
0.0723443
0.0605543
0.0419116
0.0210773
-0.000271816
-0.0129397
-0.0187118
-0.02003
-0.0174121
-0.0113148
-0.00231468
0.00899648
0.0219828
0.0359164
0.049951
0.0631186
0.0743515
0.0825283
0.0865767
0.0857294
0.0794582
0.0656354
0.0430929
0.011132
-0.0136237
-0.0278771
-0.0338541
-0.0346013
-0.0308533
-0.0232068
-0.0123376
0.00111361
0.0164933
0.0330621
0.0499429
0.0660922
0.0802981
0.0912086
0.0974381
0.0978793
0.0916468
0.0759101
0.0491355
-0.00597056
-0.0342665
-0.0498678
-0.0555447
-0.0550845
-0.0495072
-0.0395844
-0.0261026
-0.00974522
0.00883554
0.0289136
0.0496056
0.0698087
0.0881647
0.103057
0.11271
0.115559
0.110202
0.092846
0.0614268
-0.0318517
-0.0638697
-0.0804097
-0.084999
-0.0824108
-0.0740676
-0.0609686
-0.0440228
-0.0239365
-0.00132132
0.0231611
0.0486758
0.0741091
0.0979842
0.118406
0.133135
0.139997
0.136826
0.11845
0.0819444
-0.0686526
-0.10459
-0.121332
-0.123578
-0.117502
-0.105113
-0.087703
-0.0663088
-0.0416193
-0.0141374
0.0156235
0.0469702
0.0788711
0.109807
0.137635
0.159595
0.172734
0.173785
0.155526
0.113576
-0.119379
-0.159338
-0.174898
-0.172741
-0.161132
-0.142912
-0.119741
-0.0927582
-0.0625577
-0.0294276
0.00639282
0.044492
0.0840716
0.123717
0.161148
0.193095
0.215675
0.224081
0.208053
0.160632
-0.188598
-0.232218
-0.243918
-0.233929
-0.213676
-0.187136
-0.156354
-0.122481
-0.0858772
-0.0464512
-0.00399402
0.0415578
0.0898589
0.139843
0.18933
0.234697
0.271079
0.291666
0.281741
0.22977
-0.28394
-0.329278
-0.331809
-0.30826
-0.27469
-0.236422
-0.195746
-0.15359
-0.10982
-0.0637244
-0.0144177
0.0388821
0.0965704
0.15829
0.222384
0.285294
0.3414
0.381575
0.38491
0.331824
-0.419284
-0.459644
-0.442328
-0.395773
-0.342112
-0.287723
-0.234599
-0.182912
-0.13159
-0.0789653
-0.0231948
0.0374929
0.104568
0.178849
0.259869
0.344975
0.428617
0.499698
0.529668
0.485378
-0.620499
-0.636719
-0.578657
-0.494177
-0.411226
-0.335645
-0.267766
-0.205962
-0.147519
-0.0893652
-0.0284085
0.0383643
0.11382
0.200482
0.299981
0.412028
0.533028
0.651771
0.732763
0.72238
-0.935897
-0.878494
-0.741726
-0.597936
-0.474383
-0.37265
-0.288858
-0.21775
-0.153939
-0.0924484
-0.0287016
0.0417102
0.123276
0.220727
0.338931
0.482156
0.651994
0.841336
1.01526
1.09749
-1.4764
-1.20661
-0.920492
-0.69138
-0.517299
-0.387538
-0.290054
-0.213328
-0.148112
-0.0872023
-0.0245637
0.0454708
0.128949
0.23308
0.367108
0.542679
0.77129
1.05931
1.40328
1.73013
-2.53963
-1.63054
-1.04443
-0.710955
-0.495749
-0.352092
-0.254528
-0.183578
-0.126161
-0.0735841
-0.0192563
0.0428002
0.119225
0.218793
0.354819
0.547987
0.826392
1.23658
1.91167
2.92418
-4.36665
-2.04463
-0.973538
-0.563181
-0.35785
-0.240151
-0.170122
-0.123782
-0.0874761
-0.053501
-0.0166419
0.0276752
0.0846226
0.161744
0.272423
0.442107
0.718222
1.22571
2.41103
4.84852
)
;

boundaryField
{
    movingWall
    {
        type            zeroGradient;
    }
    fixedWalls
    {
        type            zeroGradient;
    }
    frontAndBack
    {
        type            empty;
    }
}


// ************************************************************************* //
