/*--------------------------------*- C++ -*----------------------------------*\
| =========                 |                                                 |
| \\      /  F ield         | OpenFOAM: The Open Source CFD Toolbox           |
|  \\    /   O peration     | Version:  2506                                  |
|   \\  /    A nd           | Website:  www.openfoam.com                      |
|    \\/     M anipulation  |                                                 |
\*---------------------------------------------------------------------------*/
FoamFile
{
    version     2.0;
    format      ascii;
    arch        "LSB;label=32;scalar=64";
    class       volVectorField;
    location    "9.25";
    object      diffU;
}
// * * * * * * * * * * * * * * * * * * * * * * * * * * * * * * * * * * * * * //

dimensions      [0 1 -1 0 0 0 0];

internalField   nonuniform List<vector> 
400
(
(0 0 0)
(1.85407e-14 -1.99739e-13 0)
(1.45439e-14 -1.56333e-13 0)
(1.4766e-14 -1.6639e-13 0)
(1.46549e-14 -1.6417e-13 0)
(1.46549e-14 -1.64591e-13 0)
(1.45439e-14 -1.64506e-13 0)
(1.44329e-14 -1.6461e-13 0)
(1.43219e-14 -1.6458e-13 0)
(1.43219e-14 -1.64644e-13 0)
(1.45439e-14 -1.64654e-13 0)
(1.43219e-14 -1.6463e-13 0)
(1.44329e-14 -1.64573e-13 0)
(1.46549e-14 -1.64564e-13 0)
(1.45439e-14 -1.64499e-13 0)
(1.42109e-14 -1.64504e-13 0)
(1.42109e-14 -1.64602e-13 0)
(1.43219e-14 -1.64653e-13 0)
(1.39888e-14 -1.64574e-13 0)
(1.42109e-14 -1.64606e-13 0)
(3.9635e-14 -1.51168e-13 0)
(5.9952e-15 -1.67706e-13 0)
(1.35447e-14 -1.63947e-13 0)
(1.33227e-14 -1.6473e-13 0)
(1.33227e-14 -1.64531e-13 0)
(1.35447e-14 -1.64589e-13 0)
(1.39888e-14 -1.64587e-13 0)
(1.39888e-14 -1.64606e-13 0)
(1.42109e-14 -1.64583e-13 0)
(1.39888e-14 -1.64644e-13 0)
(1.42109e-14 -1.64662e-13 0)
(1.37668e-14 -1.64659e-13 0)
(1.39888e-14 -1.64623e-13 0)
(1.39888e-14 -1.64566e-13 0)
(1.39888e-14 -1.64515e-13 0)
(1.39888e-14 -1.64523e-13 0)
(1.43219e-14 -1.64488e-13 0)
(1.42109e-14 -1.64579e-13 0)
(1.39888e-14 -1.64622e-13 0)
(1.39888e-14 -1.64666e-13 0)
(9.32587e-15 -3.1546e-13 0)
(1.56541e-14 -1.32609e-13 0)
(1.37668e-14 -1.72309e-13 0)
(1.37668e-14 -1.62991e-13 0)
(1.35447e-14 -1.65119e-13 0)
(1.37668e-14 -1.64797e-13 0)
(1.37668e-14 -1.64856e-13 0)
(1.39888e-14 -1.64705e-13 0)
(1.42109e-14 -1.64681e-13 0)
(1.39888e-14 -1.64571e-13 0)
(1.39888e-14 -1.64503e-13 0)
(1.42109e-14 -1.64561e-13 0)
(1.37668e-14 -1.64629e-13 0)
(1.37668e-14 -1.6469e-13 0)
(1.37668e-14 -1.64783e-13 0)
(1.35447e-14 -1.64817e-13 0)
(1.39888e-14 -1.64647e-13 0)
(1.44329e-14 -1.64529e-13 0)
(1.44329e-14 -1.64633e-13 0)
(1.43219e-14 -1.64694e-13 0)
(-7.32747e-15 -5.74678e-14 0)
(2.02061e-14 -1.87978e-13 0)
(1.37668e-14 -1.594e-13 0)
(1.4877e-14 -1.65989e-13 0)
(1.4877e-14 -1.64434e-13 0)
(1.4877e-14 -1.64721e-13 0)
(1.45439e-14 -1.64669e-13 0)
(1.43219e-14 -1.647e-13 0)
(1.44329e-14 -1.64673e-13 0)
(1.42109e-14 -1.64602e-13 0)
(1.44329e-14 -1.64507e-13 0)
(1.43219e-14 -1.64512e-13 0)
(1.45439e-14 -1.64551e-13 0)
(1.43219e-14 -1.64634e-13 0)
(1.45439e-14 -1.64713e-13 0)
(1.43219e-14 -1.64765e-13 0)
(1.42109e-14 -1.6481e-13 0)
(1.39888e-14 -1.64625e-13 0)
(1.42109e-14 -1.64597e-13 0)
(1.42109e-14 -1.64674e-13 0)
(3.75255e-14 -1.60584e-13 0)
(7.99361e-15 -1.66006e-13 0)
(1.4988e-14 -1.64446e-13 0)
(1.39888e-14 -1.64798e-13 0)
(1.37668e-14 -1.64638e-13 0)
(1.42109e-14 -1.64652e-13 0)
(1.43219e-14 -1.64643e-13 0)
(1.43219e-14 -1.64695e-13 0)
(1.46549e-14 -1.64692e-13 0)
(1.46549e-14 -1.64628e-13 0)
(1.46549e-14 -1.64565e-13 0)
(1.4766e-14 -1.64541e-13 0)
(1.46549e-14 -1.64548e-13 0)
(1.44329e-14 -1.6458e-13 0)
(1.44329e-14 -1.6461e-13 0)
(1.43219e-14 -1.64652e-13 0)
(1.43219e-14 -1.64693e-13 0)
(1.42109e-14 -1.64629e-13 0)
(1.42109e-14 -1.64591e-13 0)
(1.42109e-14 -1.64684e-13 0)
(2.66454e-15 -2.67521e-13 0)
(1.77636e-14 -1.42157e-13 0)
(1.42109e-14 -1.69798e-13 0)
(1.44329e-14 -1.63465e-13 0)
(1.46549e-14 -1.65001e-13 0)
(1.46549e-14 -1.64805e-13 0)
(1.45439e-14 -1.6487e-13 0)
(1.44329e-14 -1.64813e-13 0)
(1.44329e-14 -1.64809e-13 0)
(1.42109e-14 -1.64604e-13 0)
(1.45439e-14 -1.64482e-13 0)
(1.44329e-14 -1.64444e-13 0)
(1.44329e-14 -1.64441e-13 0)
(1.43219e-14 -1.64518e-13 0)
(1.45439e-14 -1.64614e-13 0)
(1.43219e-14 -1.64691e-13 0)
(1.43219e-14 -1.64646e-13 0)
(1.42109e-14 -1.64559e-13 0)
(1.42109e-14 -1.64567e-13 0)
(1.43219e-14 -1.64664e-13 0)
(1.37668e-14 -3.34398e-14 0)
(1.46549e-14 -1.93067e-13 0)
(1.46549e-14 -1.58164e-13 0)
(1.43219e-14 -1.66266e-13 0)
(1.45439e-14 -1.64348e-13 0)
(1.44329e-14 -1.6464e-13 0)
(1.42109e-14 -1.64588e-13 0)
(1.44329e-14 -1.64573e-13 0)
(1.39888e-14 -1.64584e-13 0)
(1.35447e-14 -1.64603e-13 0)
(1.35447e-14 -1.64613e-13 0)
(1.39888e-14 -1.6458e-13 0)
(1.44329e-14 -1.64528e-13 0)
(1.43219e-14 -1.64515e-13 0)
(1.44329e-14 -1.64594e-13 0)
(1.44329e-14 -1.64645e-13 0)
(1.43219e-14 -1.64598e-13 0)
(1.43219e-14 -1.6452e-13 0)
(1.43219e-14 -1.64522e-13 0)
(1.44329e-14 -1.64582e-13 0)
(2.16493e-14 -2.19109e-13 0)
(1.02141e-14 -1.53587e-13 0)
(1.33227e-14 -1.67552e-13 0)
(1.35447e-14 -1.64163e-13 0)
(1.35447e-14 -1.64778e-13 0)
(1.35447e-14 -1.64503e-13 0)
(1.33227e-14 -1.64511e-13 0)
(1.35447e-14 -1.64519e-13 0)
(1.37668e-14 -1.64544e-13 0)
(1.37668e-14 -1.64656e-13 0)
(1.37668e-14 -1.64742e-13 0)
(1.42109e-14 -1.64801e-13 0)
(1.37668e-14 -1.64841e-13 0)
(1.39888e-14 -1.64736e-13 0)
(1.44329e-14 -1.64622e-13 0)
(1.42109e-14 -1.64563e-13 0)
(1.39888e-14 -1.64553e-13 0)
(1.39888e-14 -1.64576e-13 0)
(1.39888e-14 -1.64527e-13 0)
(1.42109e-14 -1.64564e-13 0)
(8.43769e-15 -2.231e-13 0)
(1.72085e-14 -1.51972e-13 0)
(1.46549e-14 -1.67811e-13 0)
(1.37668e-14 -1.64055e-13 0)
(1.42109e-14 -1.64845e-13 0)
(1.42109e-14 -1.6458e-13 0)
(1.45439e-14 -1.64672e-13 0)
(1.46549e-14 -1.64777e-13 0)
(1.45439e-14 -1.64734e-13 0)
(1.46549e-14 -1.64678e-13 0)
(1.43219e-14 -1.64694e-13 0)
(1.44329e-14 -1.64769e-13 0)
(1.42109e-14 -1.64797e-13 0)
(1.39888e-14 -1.64671e-13 0)
(1.39888e-14 -1.64567e-13 0)
(1.39888e-14 -1.64577e-13 0)
(1.42109e-14 -1.64623e-13 0)
(1.42109e-14 -1.64647e-13 0)
(1.42109e-14 -1.64588e-13 0)
(1.42109e-14 -1.64589e-13 0)
(1.88738e-14 -3.16381e-14 0)
(1.28786e-14 -1.93347e-13 0)
(1.42109e-14 -1.58073e-13 0)
(1.46549e-14 -1.66245e-13 0)
(1.42109e-14 -1.64408e-13 0)
(1.39888e-14 -1.6482e-13 0)
(1.42109e-14 -1.64785e-13 0)
(1.44329e-14 -1.64757e-13 0)
(1.44329e-14 -1.6458e-13 0)
(1.44329e-14 -1.64496e-13 0)
(1.42109e-14 -1.64517e-13 0)
(1.42109e-14 -1.64527e-13 0)
(1.42109e-14 -1.64491e-13 0)
(1.39888e-14 -1.64562e-13 0)
(1.42109e-14 -1.64709e-13 0)
(1.44329e-14 -1.64719e-13 0)
(1.42109e-14 -1.6463e-13 0)
(1.43219e-14 -1.64613e-13 0)
(1.39888e-14 -1.64632e-13 0)
(1.43219e-14 -1.64645e-13 0)
(4.88498e-15 -3.11792e-13 0)
(1.55431e-14 -1.33156e-13 0)
(1.31006e-14 -1.72063e-13 0)
(1.39888e-14 -1.6302e-13 0)
(1.39888e-14 -1.64962e-13 0)
(1.39888e-14 -1.64692e-13 0)
(1.39888e-14 -1.64849e-13 0)
(1.35447e-14 -1.64748e-13 0)
(1.35447e-14 -1.64662e-13 0)
(1.35447e-14 -1.64673e-13 0)
(1.37668e-14 -1.64652e-13 0)
(1.42109e-14 -1.64521e-13 0)
(1.39888e-14 -1.64513e-13 0)
(1.42109e-14 -1.64727e-13 0)
(1.42109e-14 -1.64829e-13 0)
(1.39888e-14 -1.64738e-13 0)
(1.39888e-14 -1.64712e-13 0)
(1.39888e-14 -1.64708e-13 0)
(1.42109e-14 -1.6467e-13 0)
(1.44329e-14 -1.64675e-13 0)
(2.81997e-14 -5.97273e-14 0)
(1.35447e-14 -1.87426e-13 0)
(1.68754e-14 -1.59273e-13 0)
(1.43219e-14 -1.65793e-13 0)
(1.4988e-14 -1.64383e-13 0)
(1.45439e-14 -1.64729e-13 0)
(1.4766e-14 -1.64666e-13 0)
(1.45439e-14 -1.64649e-13 0)
(1.44329e-14 -1.64632e-13 0)
(1.45439e-14 -1.64742e-13 0)
(1.46549e-14 -1.64797e-13 0)
(1.45439e-14 -1.64632e-13 0)
(1.4877e-14 -1.64656e-13 0)
(1.4877e-14 -1.64652e-13 0)
(1.44329e-14 -1.64632e-13 0)
(1.45439e-14 -1.64668e-13 0)
(1.45439e-14 -1.64683e-13 0)
(1.43219e-14 -1.64634e-13 0)
(1.42109e-14 -1.64588e-13 0)
(1.44329e-14 -1.64599e-13 0)
(8.43769e-15 -1.69625e-13 0)
(1.26565e-14 -1.63494e-13 0)
(1.24345e-14 -1.64872e-13 0)
(1.46549e-14 -1.64591e-13 0)
(1.39888e-14 -1.64636e-13 0)
(1.42109e-14 -1.64505e-13 0)
(1.39888e-14 -1.64436e-13 0)
(1.35447e-14 -1.64536e-13 0)
(1.35447e-14 -1.64657e-13 0)
(1.42109e-14 -1.64717e-13 0)
(1.37668e-14 -1.64756e-13 0)
(1.35447e-14 -1.64767e-13 0)
(1.39888e-14 -1.64774e-13 0)
(1.37668e-14 -1.64594e-13 0)
(1.42109e-14 -1.64528e-13 0)
(1.42109e-14 -1.64582e-13 0)
(1.37668e-14 -1.64578e-13 0)
(1.37668e-14 -1.64617e-13 0)
(1.39888e-14 -1.64686e-13 0)
(1.39888e-14 -1.64651e-13 0)
(1.72085e-14 -2.80749e-13 0)
(1.53211e-14 -1.39548e-13 0)
(1.54321e-14 -1.70474e-13 0)
(1.37668e-14 -1.63296e-13 0)
(1.43219e-14 -1.64911e-13 0)
(1.42109e-14 -1.6444e-13 0)
(1.45439e-14 -1.64502e-13 0)
(1.45439e-14 -1.64656e-13 0)
(1.45439e-14 -1.648e-13 0)
(1.46549e-14 -1.64629e-13 0)
(1.45439e-14 -1.64573e-13 0)
(1.44329e-14 -1.64697e-13 0)
(1.43219e-14 -1.64683e-13 0)
(1.42109e-14 -1.64731e-13 0)
(1.42109e-14 -1.64758e-13 0)
(1.44329e-14 -1.64661e-13 0)
(1.43219e-14 -1.64619e-13 0)
(1.45439e-14 -1.6467e-13 0)
(1.45439e-14 -1.64748e-13 0)
(1.44329e-14 -1.64683e-13 0)
(1.55431e-15 1.41726e-14 0)
(1.58762e-14 -2.03116e-13 0)
(1.28786e-14 -1.55541e-13 0)
(1.42109e-14 -1.66633e-13 0)
(1.37668e-14 -1.64327e-13 0)
(1.39888e-14 -1.64824e-13 0)
(1.39888e-14 -1.64676e-13 0)
(1.42109e-14 -1.64668e-13 0)
(1.39888e-14 -1.6469e-13 0)
(1.39888e-14 -1.64525e-13 0)
(1.43219e-14 -1.64435e-13 0)
(1.42109e-14 -1.64572e-13 0)
(1.39888e-14 -1.64627e-13 0)
(1.43219e-14 -1.64766e-13 0)
(1.43219e-14 -1.64785e-13 0)
(1.42109e-14 -1.647e-13 0)
(1.39888e-14 -1.64583e-13 0)
(1.42109e-14 -1.6452e-13 0)
(1.42109e-14 -1.64612e-13 0)
(1.42109e-14 -1.6467e-13 0)
(3.79696e-14 -2.75912e-13 0)
(7.99361e-15 -1.40001e-13 0)
(1.44329e-14 -1.70248e-13 0)
(1.37668e-14 -1.6347e-13 0)
(1.37668e-14 -1.64981e-13 0)
(1.37668e-14 -1.6458e-13 0)
(1.37668e-14 -1.64571e-13 0)
(1.37668e-14 -1.64569e-13 0)
(1.37668e-14 -1.64682e-13 0)
(1.35447e-14 -1.64846e-13 0)
(1.42109e-14 -1.64859e-13 0)
(1.45439e-14 -1.64798e-13 0)
(1.46549e-14 -1.64745e-13 0)
(1.45439e-14 -1.64656e-13 0)
(1.44329e-14 -1.64568e-13 0)
(1.43219e-14 -1.6454e-13 0)
(1.39888e-14 -1.64544e-13 0)
(1.39888e-14 -1.64631e-13 0)
(1.43219e-14 -1.64637e-13 0)
(1.42109e-14 -1.64662e-13 0)
(-1.66533e-14 -1.99301e-13 0)
(2.20934e-14 -1.56937e-13 0)
(1.33227e-14 -1.66297e-13 0)
(1.46549e-14 -1.64143e-13 0)
(1.42109e-14 -1.64643e-13 0)
(1.37668e-14 -1.64624e-13 0)
(1.39888e-14 -1.64713e-13 0)
(1.42109e-14 -1.6477e-13 0)
(1.44329e-14 -1.64757e-13 0)
(1.43219e-14 -1.64848e-13 0)
(1.39888e-14 -1.64904e-13 0)
(1.37668e-14 -1.6484e-13 0)
(1.37668e-14 -1.6482e-13 0)
(1.39888e-14 -1.64666e-13 0)
(1.43219e-14 -1.64559e-13 0)
(1.42109e-14 -1.64477e-13 0)
(1.42109e-14 -1.64534e-13 0)
(1.44329e-14 -1.64658e-13 0)
(1.43219e-14 -1.64627e-13 0)
(1.43219e-14 -1.64624e-13 0)
(7.10543e-15 -2.53831e-14 0)
(1.55431e-14 -1.95513e-13 0)
(1.35447e-14 -1.57552e-13 0)
(1.45439e-14 -1.66166e-13 0)
(1.45439e-14 -1.641e-13 0)
(1.4877e-14 -1.64676e-13 0)
(1.4766e-14 -1.64715e-13 0)
(1.4766e-14 -1.64773e-13 0)
(1.46549e-14 -1.64703e-13 0)
(1.44329e-14 -1.64706e-13 0)
(1.44329e-14 -1.64635e-13 0)
(1.43219e-14 -1.64588e-13 0)
(1.44329e-14 -1.64637e-13 0)
(1.37668e-14 -1.647e-13 0)
(1.37668e-14 -1.64666e-13 0)
(1.42109e-14 -1.64611e-13 0)
(1.43219e-14 -1.64699e-13 0)
(1.42109e-14 -1.64635e-13 0)
(1.42109e-14 -1.64536e-13 0)
(1.43219e-14 -1.64587e-13 0)
(5.22915e-14 -2.23772e-13 0)
(4.66294e-15 -1.52359e-13 0)
(1.54321e-14 -1.6771e-13 0)
(1.35447e-14 -1.64042e-13 0)
(1.35447e-14 -1.64817e-13 0)
(1.37668e-14 -1.64615e-13 0)
(1.37668e-14 -1.64614e-13 0)
(1.37668e-14 -1.64685e-13 0)
(1.35447e-14 -1.64699e-13 0)
(1.37668e-14 -1.64668e-13 0)
(1.35447e-14 -1.64667e-13 0)
(1.35447e-14 -1.64634e-13 0)
(1.39888e-14 -1.64576e-13 0)
(1.39888e-14 -1.6462e-13 0)
(1.39888e-14 -1.64725e-13 0)
(1.39888e-14 -1.64797e-13 0)
(1.42109e-14 -1.64776e-13 0)
(1.39888e-14 -1.64633e-13 0)
(1.39888e-14 -1.64603e-13 0)
(1.42109e-14 -1.64614e-13 0)
(-1.55431e-15 -2.51183e-13 0)
(1.90958e-14 -1.45934e-13 0)
(1.46549e-14 -1.69045e-13 0)
(1.4988e-14 -1.63653e-13 0)
(1.5099e-14 -1.64962e-13 0)
(1.46549e-14 -1.64653e-13 0)
(1.5099e-14 -1.64672e-13 0)
(1.4766e-14 -1.64722e-13 0)
(1.4766e-14 -1.64729e-13 0)
(1.43219e-14 -1.64628e-13 0)
(1.45439e-14 -1.64668e-13 0)
(1.46549e-14 -1.64754e-13 0)
(1.43219e-14 -1.64713e-13 0)
(1.43219e-14 -1.64633e-13 0)
(1.44329e-14 -1.6468e-13 0)
(1.44329e-14 -1.64748e-13 0)
(1.39888e-14 -1.64675e-13 0)
(1.42109e-14 -1.64593e-13 0)
(1.44329e-14 -1.64654e-13 0)
(1.43219e-14 -1.64644e-13 0)
)
;

boundaryField
{
    movingWall
    {
        type            calculated;
        value           uniform (1.42109e-14 -1.64615e-13 0);
    }
    fixedWalls
    {
        type            calculated;
        value           uniform (1.42109e-14 -1.64615e-13 0);
    }
    frontAndBack
    {
        type            empty;
    }
}


// ************************************************************************* //
