/*--------------------------------*- C++ -*----------------------------------*\
| =========                 |                                                 |
| \\      /  F ield         | OpenFOAM: The Open Source CFD Toolbox           |
|  \\    /   O peration     | Version:  2506                                  |
|   \\  /    A nd           | Website:  www.openfoam.com                      |
|    \\/     M anipulation  |                                                 |
\*---------------------------------------------------------------------------*/
FoamFile
{
    version     2.0;
    format      ascii;
    arch        "LSB;label=32;scalar=64";
    class       volScalarField;
    location    "9.25";
    object      divPhi;
}
// * * * * * * * * * * * * * * * * * * * * * * * * * * * * * * * * * * * * * //

dimensions      [0 0 -1 0 0 0 0];

internalField   nonuniform List<scalar> 
400
(
-2.1684e-13
-3.97398e-15
-1.38559e-14
1.46928e-14
-3.40287e-15
-1.09292e-14
-1.79482e-15
-1.78776e-15
1.81205e-14
-9.09618e-15
1.06541e-14
-1.25495e-14
4.27782e-15
-7.30639e-16
1.1549e-14
-2.0397e-14
2.01534e-14
-1.40773e-14
5.36567e-17
0
0
-1.148e-16
1.21682e-14
-2.40594e-14
-1.52587e-14
-2.35205e-14
2.96676e-14
-3.07552e-14
-7.86469e-15
3.53935e-15
7.1242e-15
-1.94252e-14
1.85545e-14
-3.33504e-15
1.94171e-14
2.56561e-15
-2.99927e-14
7.24334e-15
5.3294e-16
2.71051e-14
-2.71051e-14
4.01613e-15
2.24832e-14
1.04759e-14
6.71781e-15
2.45883e-14
-1.80285e-14
4.21676e-16
3.48329e-15
-9.74339e-16
2.80033e-15
1.50575e-14
-1.29165e-14
-2.31829e-15
-1.9031e-14
2.02118e-14
-1.6753e-14
-3.96163e-15
1.25376e-15
0
0
1.5345e-14
-1.34356e-14
1.10766e-14
-1.7958e-15
-8.48165e-15
6.81004e-15
1.6887e-14
-1.39418e-16
3.95247e-15
8.20004e-15
-1.2905e-14
-2.04803e-14
1.32529e-15
1.49612e-14
-1.56442e-14
-1.10431e-15
1.08964e-15
4.75933e-15
-2.71051e-14
0
3.93505e-15
-1.46424e-14
1.71207e-15
2.27527e-14
-5.07113e-15
-5.55489e-15
-2.30865e-15
-2.68964e-15
1.76858e-15
2.13007e-14
-6.02466e-16
8.68338e-16
1.09827e-14
-9.70048e-16
-1.43697e-14
2.84594e-14
-2.62964e-14
8.14772e-15
2.71051e-14
0
2.93217e-14
6.45297e-15
7.26331e-15
1.77033e-14
-1.40453e-14
1.01746e-14
-1.60621e-14
-8.25149e-15
-7.33559e-15
1.54537e-14
-5.35593e-16
2.71284e-15
2.08782e-14
4.43735e-15
-2.3405e-15
-6.28241e-15
-1.06094e-14
5.74794e-15
0
0
-1.28141e-14
-1.0746e-14
1.2629e-14
-6.20539e-15
3.43664e-15
2.37286e-14
1.65843e-14
-1.53555e-14
-1.45562e-14
-1.86495e-14
-4.9154e-15
3.6564e-15
4.1667e-15
6.76584e-15
-7.51233e-15
-3.15417e-14
6.72502e-15
2.31381e-15
0
0
-3.2107e-15
-1.72666e-14
3.75402e-15
1.44587e-14
-9.44193e-15
-7.22124e-15
-4.20608e-15
1.10676e-14
1.00052e-14
3.95461e-14
8.33695e-15
-1.15276e-14
1.8463e-14
-9.56827e-15
1.22603e-14
-2.68716e-14
1.14805e-14
2.89102e-15
0
0
-1.16582e-14
3.26431e-14
-2.03363e-14
-9.1116e-15
-1.62485e-14
7.12207e-15
-2.90724e-14
2.07695e-14
2.87272e-14
-2.09525e-15
-1.42058e-14
-8.52114e-15
9.19415e-15
-1.7818e-14
2.57457e-14
-1.5e-14
1.76772e-14
-2.73676e-14
0
2.71051e-14
-7.80275e-15
1.91744e-14
1.4783e-15
-2.35362e-14
2.34107e-14
3.24526e-15
-1.7055e-14
9.43593e-15
1.24923e-14
-1.19249e-14
-5.94218e-15
-3.1554e-15
2.8193e-14
-1.24073e-14
-5.29905e-15
-4.84692e-15
1.51233e-15
3.32395e-15
-2.71051e-14
0
-6.78903e-16
-9.42283e-15
-5.23555e-15
8.83739e-16
-1.61015e-14
5.18248e-15
2.3517e-14
6.43941e-15
2.6799e-14
-2.9276e-15
-1.80382e-14
-6.48051e-15
1.72883e-15
2.37449e-14
-3.72068e-14
5.03696e-15
-3.95323e-15
-1.16834e-14
2.71051e-14
-2.71051e-14
-6.82096e-16
-3.55816e-15
4.31594e-15
8.52919e-17
-3.63085e-15
-5.7571e-15
-6.01371e-15
-2.12759e-15
1.2057e-14
1.40823e-14
-1.51236e-14
-1.7172e-15
1.04921e-14
-2.04784e-15
-9.47126e-15
2.02669e-14
8.20544e-15
-3.06201e-14
2.71051e-14
0
5.94963e-15
1.54664e-14
1.52937e-14
-1.40231e-14
-1.12755e-15
-8.15247e-15
-1.54395e-14
6.31108e-15
1.29849e-14
-1.12155e-17
2.56697e-14
-5.83601e-15
3.72043e-15
-1.64396e-14
-1.91321e-14
1.33922e-14
-4.19316e-15
-1.95856e-14
0
0
1.70778e-14
-1.87562e-15
-2.68494e-14
3.8456e-14
2.2966e-15
-1.72154e-14
2.50658e-14
-5.9488e-15
3.5436e-14
-1.08705e-14
-3.99353e-15
-1.81417e-15
8.71272e-15
2.34767e-14
-1.88962e-14
2.49823e-14
1.66371e-15
1.12718e-14
-2.71051e-14
0
-6.54573e-16
-3.30123e-15
-7.1872e-15
1.94245e-14
3.5275e-14
1.28863e-14
-3.83975e-14
8.78687e-15
1.41603e-14
-1.37911e-14
-1.50821e-14
-1.22461e-14
2.75469e-14
1.43696e-14
-5.59765e-15
2.78187e-14
-1.53798e-14
3.2317e-14
-2.71051e-14
0
2.13443e-14
-7.49608e-15
-3.55422e-15
-1.08806e-14
2.00412e-14
3.4425e-14
-3.31629e-14
1.1317e-14
-7.4427e-16
-1.56789e-16
1.70647e-14
2.91853e-15
4.44357e-15
-1.70164e-14
-2.99254e-15
2.17679e-15
1.80988e-14
-1.34177e-14
2.71051e-14
-2.71051e-14
5.4868e-15
1.35027e-15
6.80869e-15
-2.07357e-14
1.15606e-14
-3.22835e-15
-7.30287e-15
2.9174e-14
4.29127e-15
1.54907e-14
-2.15037e-14
4.66602e-15
2.34542e-14
2.73668e-15
2.21886e-14
-3.00726e-14
-6.31157e-15
-1.47946e-14
0
2.71051e-14
1.47661e-14
-2.18272e-15
-4.57846e-16
-1.85133e-15
3.50193e-14
-1.29427e-14
-2.42512e-14
-4.46248e-15
7.76119e-15
-2.56814e-14
1.03492e-15
2.48894e-14
2.0849e-15
1.26898e-14
-1.67898e-14
1.95252e-15
-1.28192e-14
-1.66128e-14
0
-2.71051e-14
-1.07815e-14
7.13896e-15
1.04137e-14
-3.10091e-14
6.9926e-16
7.32011e-15
-1.41532e-14
1.50779e-14
2.01637e-14
5.46618e-15
-1.82823e-14
1.30279e-14
2.12499e-14
3.77305e-15
-1.93506e-14
2.40051e-14
-1.27221e-14
-4.02225e-15
2.71051e-14
2.71051e-14
-2.71051e-14
0
0
0
0
0
0
-2.71051e-14
0
2.71051e-14
0
2.71051e-14
0
2.71051e-14
0
0
0
0
0
)
;

boundaryField
{
    movingWall
    {
        type            extrapolatedCalculated;
        value           nonuniform List<scalar> 
20
(
2.71051e-14
-2.71051e-14
0
0
0
0
0
0
-2.71051e-14
0
2.71051e-14
0
2.71051e-14
0
2.71051e-14
0
0
0
0
0
)
;
    }
    fixedWalls
    {
        type            extrapolatedCalculated;
        value           nonuniform List<scalar> 
60
(
-2.1684e-13
0
-2.71051e-14
0
0
0
0
0
0
2.71051e-14
0
-2.71051e-14
0
0
0
0
-2.71051e-14
2.71051e-14
-2.71051e-14
2.71051e-14
0
2.71051e-14
0
-2.71051e-14
2.71051e-14
0
0
0
0
-2.71051e-14
2.71051e-14
2.71051e-14
0
-2.71051e-14
-2.71051e-14
2.71051e-14
0
0
2.71051e-14
0
-2.1684e-13
-3.97398e-15
-1.38559e-14
1.46928e-14
-3.40287e-15
-1.09292e-14
-1.79482e-15
-1.78776e-15
1.81205e-14
-9.09618e-15
1.06541e-14
-1.25495e-14
4.27782e-15
-7.30639e-16
1.1549e-14
-2.0397e-14
2.01534e-14
-1.40773e-14
5.36567e-17
0
)
;
    }
    frontAndBack
    {
        type            empty;
    }
}


// ************************************************************************* //
