/*--------------------------------*- C++ -*----------------------------------*\
| =========                 |                                                 |
| \\      /  F ield         | OpenFOAM: The Open Source CFD Toolbox           |
|  \\    /   O peration     | Version:  2506                                  |
|   \\  /    A nd           | Website:  www.openfoam.com                      |
|    \\/     M anipulation  |                                                 |
\*---------------------------------------------------------------------------*/
FoamFile
{
    version     2.0;
    format      ascii;
    arch        "LSB;label=32;scalar=64";
    class       volScalarField;
    location    "9.25";
    object      divU;
}
// * * * * * * * * * * * * * * * * * * * * * * * * * * * * * * * * * * * * * //

dimensions      [0 0 -1 0 0 0 0];

internalField   nonuniform List<scalar> 
400
(
1.68322e-11
-2.38499e-12
5.15471e-13
-1.61963e-13
2.57134e-14
4.85454e-15
-1.34822e-14
1.30431e-15
-2.04564e-14
2.12351e-14
-8.67871e-15
-5.95253e-15
3.31583e-15
9.97254e-15
2.15257e-14
-3.39109e-14
1.38732e-14
-2.69451e-16
3.36492e-15
0
-2.97885e-11
4.08404e-12
-8.92421e-13
3.40533e-13
-4.20582e-14
3.85403e-14
-2.14066e-14
-8.15897e-15
5.07731e-14
1.38646e-15
-4.77447e-14
-2.62387e-14
2.48484e-14
-2.68749e-15
-3.39768e-14
1.60964e-14
-1.76457e-14
-4.20657e-14
-2.61481e-15
5.42101e-14
9.02598e-12
-1.57524e-12
2.67024e-13
-1.37727e-13
2.18288e-14
-1.74405e-15
-2.53627e-15
9.51048e-15
4.17587e-14
-4.86051e-14
2.1988e-14
1.5594e-14
-2.21761e-14
-9.51919e-15
-2.67388e-14
-3.52927e-14
5.85846e-14
6.17633e-14
-2.72553e-14
-5.42101e-14
1.39049e-11
-1.25571e-12
2.67266e-13
-7.45283e-14
4.28085e-14
-1.43476e-14
-3.54304e-14
-1.65851e-14
-1.35482e-14
-1.33911e-16
1.57378e-14
-9.47378e-15
1.30565e-14
1.54437e-15
1.76768e-14
-1.88256e-14
-2.73968e-14
-2.49695e-15
4.0988e-15
2.71051e-14
-1.93259e-11
2.32348e-12
-4.47285e-13
1.50838e-13
-6.80841e-14
5.85989e-14
-1.27331e-15
2.63709e-14
-4.41086e-17
-2.78547e-16
-8.92668e-15
-2.65517e-15
-3.03196e-15
1.31315e-14
4.86958e-16
-1.13305e-14
-1.09978e-14
4.11695e-15
7.18079e-15
0
1.19262e-11
-1.57522e-12
3.16462e-13
-1.31439e-13
6.93117e-14
-2.15216e-14
4.28285e-15
1.14416e-14
-1.6357e-14
2.24849e-15
1.34244e-14
-6.55605e-15
-1.03688e-15
1.96096e-14
2.14723e-15
-3.77123e-14
-1.42935e-15
-1.20763e-14
4.11535e-14
-2.71051e-14
4.8518e-12
-1.06485e-12
1.88632e-13
-6.57172e-14
1.03228e-14
8.64865e-15
4.01692e-14
1.37481e-14
-4.41391e-14
-5.71473e-14
4.17037e-14
3.90043e-14
-1.39157e-14
-2.1574e-15
1.32377e-15
-2.50039e-14
7.86592e-15
-1.37758e-14
1.80318e-14
-5.42101e-14
-1.86212e-11
3.2615e-12
-6.67575e-13
2.63762e-13
-3.94161e-14
1.46418e-14
-4.95704e-14
2.04426e-14
4.93413e-14
-1.04123e-14
6.42399e-15
-7.00168e-15
-1.3683e-14
3.64664e-14
3.10564e-14
-1.82717e-14
-4.89103e-14
6.003e-16
3.86065e-14
0
1.84856e-11
-3.34364e-12
6.0566e-13
-2.69767e-13
7.88661e-14
-1.70702e-14
3.14618e-14
-3.05178e-14
-8.3844e-15
-2.16059e-14
2.89209e-14
-6.67346e-15
2.12948e-14
-2.74009e-14
-4.66724e-15
-6.68931e-15
5.17898e-14
-3.14974e-15
9.80352e-16
0
-8.53809e-12
1.41112e-12
-2.2617e-13
1.0486e-13
-1.22513e-13
5.29989e-14
1.379e-14
2.6551e-14
-1.18438e-15
-2.11498e-14
-2.10148e-14
1.81585e-14
-3.1643e-14
-5.94198e-15
5.04363e-14
-2.27853e-14
-3.83803e-14
-9.19812e-15
-7.30801e-15
0
-3.60497e-12
1.40691e-12
-2.92023e-13
1.22992e-13
1.55586e-14
7.96419e-15
-2.8521e-14
-4.38877e-14
-6.42964e-15
3.55671e-14
5.16718e-15
-1.94146e-14
-2.10973e-14
3.92089e-14
3.86354e-15
-4.48506e-14
-1.65054e-14
4.29182e-14
2.41851e-14
-2.71051e-14
1.55312e-11
-4.17483e-12
8.33624e-13
-3.8656e-13
4.81637e-14
-3.82951e-16
3.98907e-14
4.47655e-15
-5.96133e-15
3.12246e-14
-5.30331e-15
1.01964e-14
7.03961e-15
-2.87698e-14
6.85395e-15
2.50138e-14
2.40077e-14
-5.63622e-14
2.2578e-14
-2.71051e-14
-2.27954e-11
5.13949e-12
-9.09841e-13
4.05275e-13
-8.59563e-14
2.85199e-14
-5.20908e-14
-5.0451e-14
3.14669e-14
4.25902e-14
-6.41867e-14
5.78661e-14
4.42175e-15
1.75072e-14
4.85177e-14
-5.55228e-14
-2.38907e-14
2.14143e-14
-2.05032e-14
5.42101e-14
1.87838e-11
-4.13529e-12
7.82224e-13
-3.40981e-13
8.04682e-14
-3.38626e-15
5.14556e-15
-9.42881e-15
2.81521e-14
7.56767e-15
-4.95877e-15
2.31514e-14
-3.51132e-14
-2.68351e-14
-4.22304e-15
-1.30788e-14
2.97541e-14
3.9814e-15
1.39993e-14
-5.42101e-14
-6.23416e-13
1.13204e-12
-1.70971e-13
7.52484e-14
-3.49666e-14
9.72186e-15
5.24232e-14
-7.53719e-16
-4.13775e-14
4.00958e-14
-3.36087e-14
-1.4083e-14
-1.42007e-14
3.49455e-14
1.47211e-14
-2.81155e-14
1.0187e-14
7.87604e-15
-1.98324e-15
0
-1.9597e-11
2.28046e-12
-5.14681e-13
1.61662e-13
-3.95184e-14
2.96717e-14
-5.40734e-15
-1.10214e-14
-4.8048e-14
3.49189e-14
8.2168e-14
-1.38119e-14
2.0677e-14
-9.20223e-15
1.02164e-14
-3.29672e-14
-3.90683e-14
4.82526e-14
-3.38534e-15
0
2.27682e-11
-2.56599e-12
5.38056e-13
-1.62116e-13
-3.27108e-14
-3.41782e-14
6.15034e-14
-4.30281e-15
4.10293e-15
-5.3518e-15
-5.80131e-14
3.43083e-14
3.14068e-14
4.05933e-14
4.35869e-16
-1.29408e-14
-3.15544e-16
-6.41172e-15
6.66308e-15
-2.71051e-14
-3.03577e-12
1.09028e-12
-2.53787e-13
1.18999e-13
4.14345e-15
4.80715e-14
-9.96334e-15
4.21289e-15
-4.43794e-14
1.26035e-14
1.98229e-14
2.7824e-14
-7.96725e-14
-9.06974e-15
1.09252e-14
9.27969e-15
2.52675e-15
-3.09984e-14
3.61455e-14
-2.71051e-14
-1.97325e-11
1.27767e-12
-2.64615e-13
7.2168e-14
-2.78421e-14
-3.89768e-15
-5.69325e-15
-4.49211e-14
6.14034e-14
2.0425e-14
-6.48036e-14
3.8351e-14
2.12051e-14
-2.36543e-15
9.51356e-15
4.97925e-14
4.88568e-15
-5.39205e-14
5.15045e-14
0
1.35254e-11
-1.49078e-12
3.25261e-13
-8.13152e-14
0
0
0
0
-2.71051e-14
0
2.71051e-14
0
-2.71051e-14
2.71051e-14
2.71051e-14
-2.71051e-14
2.71051e-14
2.71051e-14
0
-2.71051e-14
)
;

boundaryField
{
    movingWall
    {
        type            extrapolatedCalculated;
        value           nonuniform List<scalar> 
20
(
1.35254e-11
-1.49078e-12
3.25261e-13
-8.13152e-14
0
0
0
0
-2.71051e-14
0
2.71051e-14
0
-2.71051e-14
2.71051e-14
2.71051e-14
-2.71051e-14
2.71051e-14
2.71051e-14
0
-2.71051e-14
)
;
    }
    fixedWalls
    {
        type            extrapolatedCalculated;
        value           nonuniform List<scalar> 
60
(
1.68322e-11
-2.97885e-11
9.02598e-12
1.39049e-11
-1.93259e-11
1.19262e-11
4.8518e-12
-1.86212e-11
1.84856e-11
-8.53809e-12
-3.60497e-12
1.55312e-11
-2.27954e-11
1.87838e-11
-6.23416e-13
-1.9597e-11
2.27682e-11
-3.03577e-12
-1.97325e-11
1.35254e-11
0
5.42101e-14
-5.42101e-14
2.71051e-14
0
-2.71051e-14
-5.42101e-14
0
0
0
-2.71051e-14
-2.71051e-14
5.42101e-14
-5.42101e-14
0
0
-2.71051e-14
-2.71051e-14
0
-2.71051e-14
1.68322e-11
-2.38499e-12
5.15471e-13
-1.61963e-13
2.57134e-14
4.85454e-15
-1.34822e-14
1.30431e-15
-2.04564e-14
2.12351e-14
-8.67871e-15
-5.95253e-15
3.31583e-15
9.97254e-15
2.15257e-14
-3.39109e-14
1.38732e-14
-2.69451e-16
3.36492e-15
0
)
;
    }
    frontAndBack
    {
        type            empty;
    }
}


// ************************************************************************* //
