/*--------------------------------*- C++ -*----------------------------------*\
| =========                 |                                                 |
| \\      /  F ield         | OpenFOAM: The Open Source CFD Toolbox           |
|  \\    /   O peration     | Version:  2506                                  |
|   \\  /    A nd           | Website:  www.openfoam.com                      |
|    \\/     M anipulation  |                                                 |
\*---------------------------------------------------------------------------*/
FoamFile
{
    version     2.0;
    format      ascii;
    arch        "LSB;label=32;scalar=64";
    class       volScalarField;
    location    "9.25";
    object      enstrophyField;
}
// * * * * * * * * * * * * * * * * * * * * * * * * * * * * * * * * * * * * * //

dimensions      [0 0 -2 0 0 0 0];

internalField   nonuniform List<scalar> 
400
(
7.00656e-23
1.15514e-22
5.74322e-24
2.86203e-25
2.14119e-26
5.65061e-28
4.20267e-28
2.7501e-29
4.63332e-28
2.72737e-29
1.39504e-27
1.93978e-27
2.18022e-29
1.94083e-28
1.79952e-29
5.32377e-29
1.11396e-28
4.1769e-30
1.73734e-27
1.25881e-29
6.50084e-27
5.06883e-25
7.17627e-26
2.61588e-28
1.11922e-26
8.44311e-27
5.69852e-27
1.49343e-27
2.70675e-28
1.07038e-27
1.39068e-27
7.67731e-30
4.10752e-27
7.10753e-27
1.71332e-27
3.52643e-27
1.59182e-29
8.2027e-28
1.97847e-27
1.72865e-29
2.58832e-23
8.29284e-23
4.78136e-24
1.54812e-25
6.8558e-26
9.30254e-27
2.60216e-27
6.72808e-28
9.41397e-29
1.59207e-28
4.52518e-31
2.23451e-27
4.43595e-27
9.04266e-28
2.23505e-27
9.03193e-29
3.44497e-27
4.04117e-28
9.53562e-28
1.48866e-28
1.53034e-23
4.45025e-23
2.12864e-24
1.40759e-25
4.97e-27
1.27993e-27
1.35876e-27
3.7655e-28
1.49455e-28
4.21591e-27
1.02027e-27
1.71865e-27
2.20765e-27
4.75909e-27
2.267e-27
4.13793e-27
2.26228e-27
2.25908e-28
2.47552e-28
4.88958e-28
2.53404e-25
6.6292e-27
7.29088e-27
6.15114e-28
8.73466e-28
1.45162e-31
9.32188e-30
5.1169e-28
2.20124e-29
8.0527e-29
1.68867e-28
1.50889e-30
7.40827e-30
5.55905e-28
2.62462e-29
3.45438e-29
2.59552e-30
5.24254e-29
1.52395e-29
1.06097e-29
1.61693e-23
4.13566e-23
2.27009e-24
9.05001e-26
2.31879e-26
8.63236e-29
3.24155e-31
1.86933e-29
2.82269e-27
1.41392e-26
1.14801e-26
1.70339e-27
2.78942e-29
4.76062e-29
1.4821e-28
5.03339e-30
8.67125e-29
3.15129e-29
5.52414e-29
3.63889e-28
3.50696e-23
6.8603e-23
3.88787e-24
1.3003e-25
4.44506e-26
3.56691e-27
1.01088e-26
5.91556e-27
3.06557e-27
4.0769e-30
4.32317e-28
1.96542e-27
6.60675e-27
2.10771e-28
8.45002e-29
8.15105e-32
7.82969e-28
2.84179e-29
1.92068e-29
7.80744e-29
7.34092e-24
1.19296e-23
5.59186e-25
4.63743e-26
5.80105e-28
1.44747e-27
4.10952e-28
5.59058e-30
4.51126e-27
5.10425e-27
8.68328e-28
4.15969e-27
2.1246e-29
2.88976e-27
2.55388e-27
5.79734e-28
1.40298e-27
1.61523e-27
6.8517e-31
8.8009e-29
9.06955e-24
1.38229e-23
8.66973e-25
2.31539e-26
5.68579e-27
2.04537e-27
8.21257e-27
6.56485e-27
9.80725e-28
1.26506e-27
4.08983e-27
5.21373e-29
9.84156e-28
2.62809e-28
4.34169e-29
1.56656e-29
1.87299e-27
1.28197e-27
1.68742e-29
1.37487e-29
5.74871e-23
7.75476e-23
4.04893e-24
2.18243e-25
1.01523e-26
1.37027e-28
1.8303e-27
8.31391e-27
9.04719e-27
6.57927e-27
3.063e-27
4.40761e-28
1.28744e-27
2.8875e-27
1.23432e-28
3.07667e-29
5.54807e-29
1.51313e-32
4.98e-30
2.49656e-28
7.77046e-23
9.68654e-23
5.2176e-24
2.71749e-25
2.45223e-26
9.19447e-28
1.79076e-27
1.74978e-28
2.82697e-29
4.84299e-31
7.58961e-28
8.72988e-29
8.32745e-27
3.68707e-27
3.98649e-28
6.91402e-29
4.66162e-30
8.57469e-30
5.55554e-30
1.20685e-28
3.08526e-23
4.68856e-23
2.51911e-24
1.59707e-25
5.66395e-27
3.40416e-27
3.19509e-29
5.72672e-30
4.3988e-29
7.80158e-27
6.14258e-29
4.54765e-27
2.11766e-30
4.35669e-28
1.30074e-30
1.75429e-27
5.78073e-30
2.02594e-27
6.13667e-30
1.25082e-27
2.41699e-25
4.88552e-26
3.3246e-28
3.0313e-27
1.97845e-27
2.75575e-27
2.87297e-28
2.44896e-28
1.63489e-28
4.95473e-29
1.2535e-29
1.46406e-30
2.55699e-27
5.59906e-27
4.00203e-28
2.45907e-28
1.28773e-27
2.11796e-27
4.65824e-28
5.81839e-29
3.52968e-23
5.72688e-23
2.94993e-24
1.86353e-25
1.8113e-27
8.38089e-28
1.50071e-29
6.17732e-27
1.32646e-27
1.24133e-27
1.86247e-27
4.26063e-27
5.95375e-30
1.905e-27
2.51964e-29
9.5703e-29
1.5195e-27
2.2481e-27
4.05121e-28
2.39498e-29
7.12997e-23
1.32302e-22
7.15863e-24
3.85944e-25
2.16419e-26
1.07493e-27
4.69472e-27
3.19584e-27
4.57046e-27
8.96504e-27
1.22567e-27
1.07018e-27
1.08279e-27
2.45104e-27
1.13062e-27
1.11615e-27
2.60551e-27
1.31579e-27
7.34079e-29
5.24664e-28
2.34769e-23
4.97013e-23
2.88277e-24
1.11616e-25
9.52876e-27
8.41452e-28
3.3955e-28
6.18089e-29
5.93708e-27
1.00438e-27
1.11886e-29
2.1564e-27
8.55083e-28
2.57989e-27
6.72408e-29
2.94954e-30
2.0035e-27
4.28649e-29
5.01288e-30
2.02638e-28
8.66184e-26
3.22952e-24
2.21994e-25
3.52829e-27
1.22573e-26
6.65078e-27
7.57112e-27
6.36615e-27
1.91775e-27
4.60947e-27
2.80402e-31
1.95766e-27
2.5687e-27
3.2271e-27
8.09867e-27
3.11674e-30
1.6398e-28
6.61505e-28
4.66917e-28
2.16728e-30
7.58346e-24
6.62318e-23
3.76735e-24
1.34808e-25
3.31286e-26
1.89137e-27
9.90522e-28
1.53663e-27
1.85334e-27
5.74583e-28
2.17908e-27
3.31762e-32
2.13798e-27
2.93213e-28
3.98951e-29
1.29856e-27
3.04126e-30
4.75917e-27
1.74154e-27
1.363e-28
7.20345e-24
1.40877e-23
8.15063e-25
2.16255e-26
9.60455e-27
1.12325e-27
1.87654e-27
6.35211e-28
1.47616e-30
1.64784e-27
5.82875e-30
1.01375e-27
9.68793e-31
4.63192e-27
2.58468e-27
1.76183e-27
2.49277e-27
6.78522e-28
1.37071e-27
4.00919e-28
1.04248e-23
2.98452e-23
1.29484e-24
9.47777e-26
2.66407e-27
4.19393e-28
1.12073e-27
2.29503e-28
4.43472e-29
1.15631e-27
2.23135e-27
1.00752e-29
7.32256e-29
5.25564e-30
6.57697e-29
1.36503e-31
7.52571e-28
2.29356e-30
1.29862e-29
5.77237e-28
)
;

boundaryField
{
    movingWall
    {
        type            calculated;
        value           nonuniform List<scalar> 
20
(
8.5737e-23
5.16925e-23
1.2708e-24
2.58579e-25
3.25564e-26
2.13413e-26
6.06932e-26
2.34067e-26
2.67874e-26
1.27661e-27
7.2762e-27
1.49899e-26
1.59673e-27
1.13531e-27
2.99142e-27
3.99085e-27
2.69407e-27
2.29356e-30
3.50465e-27
1.31489e-27
)
;
    }
    fixedWalls
    {
        type            calculated;
        value           nonuniform List<scalar> 
60
(
2.09528e-21
9.93336e-24
1.54841e-21
8.00508e-22
2.02424e-25
7.52889e-22
1.27879e-21
2.26476e-22
2.66089e-22
1.43053e-21
1.78596e-21
8.65388e-22
4.2297e-25
1.04648e-21
2.41011e-21
9.11767e-22
5.786e-23
1.18846e-21
2.592e-22
5.25033e-22
6.63483e-30
2.11184e-28
1.15406e-29
1.28332e-27
3.90057e-28
2.72022e-29
8.46072e-29
2.38421e-29
5.12206e-29
1.12475e-28
4.89474e-30
1.15463e-27
1.03994e-28
6.00182e-32
1.20638e-27
3.20439e-29
6.41245e-30
1.30026e-28
3.69616e-28
7.60875e-28
1.73601e-22
1.50776e-22
5.12553e-24
5.05742e-25
2.41592e-30
2.23139e-26
9.12785e-27
4.63051e-27
1.13979e-27
1.34134e-27
8.69062e-27
6.60039e-28
3.37961e-27
1.44896e-26
8.09343e-27
5.32377e-29
1.11396e-28
8.61898e-28
4.37619e-27
1.25881e-29
)
;
    }
    frontAndBack
    {
        type            empty;
    }
}


// ************************************************************************* //
