/*--------------------------------*- C++ -*----------------------------------*\
| =========                 |                                                 |
| \\      /  F ield         | OpenFOAM: The Open Source CFD Toolbox           |
|  \\    /   O peration     | Version:  2506                                  |
|   \\  /    A nd           | Website:  www.openfoam.com                      |
|    \\/     M anipulation  |                                                 |
\*---------------------------------------------------------------------------*/
FoamFile
{
    version     2.0;
    format      ascii;
    arch        "LSB;label=32;scalar=64";
    class       volScalarField;
    location    "9.25";
    object      flowTypeField;
}
// * * * * * * * * * * * * * * * * * * * * * * * * * * * * * * * * * * * * * //

dimensions      [0 0 0 0 0 0 0];

internalField   nonuniform List<scalar> 
400
(
0.418449
0.0580431
0.0241746
0.0607853
-0.0853407
0.0100063
0.259102
0.0137163
0.200595
0.667719
0.0370256
-0.139158
0.0928013
0.301001
0.651084
0.766016
0.237258
0.00346431
-0.0839913
0.195778
0.994883
0.822001
0.734498
0.910143
0.135008
0.112853
0.0847416
0.00678432
0.558393
0.151117
0.293489
0.79466
-0.0499711
-0.0908895
0.0443769
0.168973
0.17917
0.32304
-0.150156
0.845384
0.493653
0.108815
-0.00457025
0.235398
-0.911457
0.162938
0.115872
0.379531
0.719199
0.622166
0.863719
-0.177371
-0.0863859
-0.463037
-0.140927
0.584887
0.205324
0.474956
-0.044278
0.500535
0.634122
0.131322
0.131126
0.0286666
0.254526
-0.0728971
0.310754
0.255611
0.35332
0.153094
0.242099
-0.0796381
-0.205872
-0.184675
-0.167353
-0.036366
0.208117
0.0894285
0.18276
-0.148922
0.953333
0.968541
0.866645
0.834317
0.316265
0.968667
0.812535
0.187472
0.714571
6.15108e-05
0.315842
0.622493
0.805366
-0.111148
0.349316
0.641792
0.87702
0.142186
0.108323
0.0179895
0.570621
0.105691
0.0497496
0.148486
-0.470991
0.497498
0.701075
0.471221
-0.170766
-0.239285
-0.0926841
-0.0727453
0.03054
0.629949
0.00442596
0.819807
0.170714
0.663781
0.575407
0.286391
0.250156
0.0645537
-0.0366125
0.179551
-0.751904
0.259871
-0.0130906
0.056884
0.304303
0.9124
0.4954
0.3589
0.0323049
0.47905
0.00189526
0.949685
-0.328015
0.0221658
0.705223
0.715632
0.753518
0.244097
0.253656
0.14463
0.388035
-0.711403
0.474321
0.906601
0.046881
-0.233674
0.00330915
-0.0885397
0.689158
0.0616081
-0.143332
0.128972
0.279824
-0.0195162
0.952947
0.497663
0.727171
0.214277
0.156129
0.384695
-0.0688393
0.282831
-0.0185866
-0.0308836
0.182102
0.183117
-0.0676598
0.674619
0.333884
0.562659
0.231026
0.574971
0.192367
0.0671544
0.438152
0.380961
0.201273
0.0261418
-0.0341828
-0.0285938
0.190666
0.751046
0.0448945
-0.145699
-0.235574
-0.0249642
0.0845599
0.177726
0.341018
-0.384448
0.763699
0.486947
0.580775
0.826282
0.537611
0.202733
-0.0426449
0.00643728
-0.078982
-0.0290394
-0.322536
0.215359
0.034129
0.613726
0.156092
0.960937
0.385286
0.521754
-0.172585
-0.0293707
-0.0018462
0.726199
0.396853
0.882307
0.815175
0.547442
0.472562
0.0728563
0.0169694
0.0243025
0.0683842
-0.212595
0.74547
0.847428
0.00115628
-0.11111
0.239156
-0.057773
0.902466
0.468114
0.923087
-0.0461983
0.658842
0.168361
0.806313
0.164165
0.956507
0.912158
0.968064
0.686877
0.203894
-0.162533
0.6632
0.558026
0.630717
0.605925
0.909169
0.939817
-0.312841
-0.205891
0.484724
0.571004
0.156349
-0.0562834
0.0341997
0.746056
0.535663
0.0838887
0.0490137
-0.000357057
0.516526
0.271491
0.840637
-0.337071
0.141924
-0.283751
0.108229
-0.0991353
0.901431
-0.0781437
0.747176
0.21158
0.0861309
-0.209612
-0.0117062
0.845039
0.151515
0.0436867
-0.0356676
0.00443712
-0.133572
0.451965
0.0228313
0.0220653
0.0378475
-0.0668608
0.179598
-0.466483
-0.585482
-0.116043
0.164115
-0.0516835
-0.309049
0.0552901
0.561332
-0.185902
0.647743
0.14479
0.0883589
0.18619
-0.183387
0.0950416
0.045516
0.232638
-0.0729581
0.330272
0.947964
-0.0684884
0.0813852
-0.132403
0.476563
0.927704
0.168441
0.77935
0.0684939
0.258966
0.977136
0.587817
0.536819
0.699959
0.137163
-0.0264246
0.0974657
0.00739954
-0.139655
-0.0943064
0.976026
-0.0668884
-0.128207
0.00944984
-0.167044
0.549659
0.440167
-0.332964
-0.0498025
0.871266
0.646212
0.130509
0.0662498
0.21565
-0.614266
0.228215
0.257163
-0.00991431
0.194205
-0.0203891
-0.0990862
0.937429
0.424653
0.332939
0.656872
0.347312
0.885408
-0.125776
0.029277
0.519763
0.791773
0.33032
0.289197
0.470872
0.0258662
-0.708086
-0.124475
0.374698
0.939296
-0.0469319
0.899123
0.38465
0.901496
-0.177234
-0.321432
0.219047
-0.296866
0.476017
0.293353
-0.0209088
0.663087
0.128223
0.174841
0.0203126
0.390973
0.00868533
0.129214
0.441278
0.782368
0.117356
-0.0652753
0.794384
0.530555
0.817465
0.395391
0.972863
0.322396
0.864179
0.0990821
0.121207
)
;

boundaryField
{
    movingWall
    {
        type            calculated;
        value           nonuniform List<scalar> 
20
(
0.578189
0.102439
0.33947
-0.120116
0.325202
-0.157154
0.0212942
0.0491449
0.0077702
-0.126477
0.120049
0.0768716
0.137498
0.0897685
0.159318
0.216237
0.196645
0.869849
0.0701779
0.045429
)
;
    }
    fixedWalls
    {
        type            calculated;
        value           nonuniform List<scalar> 
60
(
0.0530389
0.827726
0.0882453
0.131465
0.961677
0.101167
0.0400933
0.245623
0.215239
0.00865999
-0.0119713
0.0662423
0.943356
0.0815581
0.0315573
0.142639
0.599752
0.12635
0.334737
0.142248
0.278484
0.716291
0.880712
-0.83812
0.000571764
0.817249
0.806127
0.726343
0.19181
0.656438
0.945316
0.483646
0.788149
0.984811
-0.766327
0.689289
0.875329
0.63004
0.0179141
0.244756
0.667392
0.167125
0.292797
0.0673752
0.986867
-0.186492
0.0518688
-0.0826054
0.107848
0.0362583
0.0171071
0.185176
0.0881287
0.0474838
0.0939502
0.801993
0.0460751
0.110548
-0.0346986
0.159564
)
;
    }
    frontAndBack
    {
        type            empty;
    }
}


// ************************************************************************* //
