/*--------------------------------*- C++ -*----------------------------------*\
| =========                 |                                                 |
| \\      /  F ield         | OpenFOAM: The Open Source CFD Toolbox           |
|  \\    /   O peration     | Version:  2506                                  |
|   \\  /    A nd           | Website:  www.openfoam.com                      |
|    \\/     M anipulation  |                                                 |
\*---------------------------------------------------------------------------*/
FoamFile
{
    version     2.0;
    format      ascii;
    arch        "LSB;label=32;scalar=64";
    class       surfaceScalarField;
    location    "9.25";
    object      fluxField;
}
// * * * * * * * * * * * * * * * * * * * * * * * * * * * * * * * * * * * * * //

dimensions      [0 3 -1 0 0 0 0];

oriented        oriented;

internalField   nonuniform List<scalar> 
760
(
-5e-05
4.45154e-18
-5e-05
-9.55389e-19
-5e-05
2.23735e-19
-5e-05
-4.72671e-20
-5e-05
1.32046e-20
-5e-05
1.21363e-21
-5e-05
3.40573e-21
-5e-05
3.26076e-22
-5e-05
1.66217e-21
-5e-05
-1.46748e-21
-5e-05
-2.16968e-21
-5e-05
-1.48813e-21
-5e-05
8.28957e-22
-5e-05
2.49313e-21
-5e-05
5.38142e-21
-5e-05
5.07479e-21
-5e-05
3.46829e-21
-5e-05
-6.73627e-23
-5e-05
8.41229e-22
-1.0568e-21
-5e-05
-3.43497e-18
-5e-05
7.22855e-19
-5e-05
-1.75671e-19
-5e-05
3.76994e-20
-5e-05
-1.05146e-20
-5e-05
-3.91745e-21
-5e-05
-5.35165e-21
-5e-05
-2.03974e-21
-5e-05
-8.59245e-22
-5e-05
3.46615e-22
-5e-05
1.61635e-21
-5e-05
2.16588e-22
-5e-05
-5.64167e-22
-5e-05
-6.71872e-22
-5e-05
-1.71793e-21
-5e-05
-2.75217e-21
-5e-05
2.36483e-21
-5e-05
3.03611e-21
-5e-05
-6.53702e-22
-3.27881e-21
-5e-05
-1.09247e-18
-5e-05
2.16054e-19
-5e-05
-6.19931e-20
-5e-05
6.22571e-21
-5e-05
-8.09532e-21
-5e-05
-7.21228e-21
-5e-05
-7.41033e-21
-5e-05
-4.39864e-21
-5e-05
-3.11286e-21
-5e-05
1.40126e-21
-5e-05
5.49701e-21
-5e-05
3.89851e-21
-5e-05
1.23225e-21
-5e-05
-2.3798e-21
-5e-05
-6.6847e-21
-5e-05
-8.82316e-21
-5e-05
-5.68264e-21
-5e-05
1.88829e-21
-5e-05
-3.75529e-23
-3.46664e-21
-5e-05
2.77942e-18
-5e-05
-6.1886e-19
-5e-05
1.34579e-19
-5e-05
-3.89609e-20
-5e-05
3.92585e-21
-5e-05
-3.5869e-21
-5e-05
-2.08134e-21
-5e-05
-4.14627e-21
-5e-05
-3.38706e-21
-5e-05
-3.34777e-23
-5e-05
3.93445e-21
-5e-05
4.40782e-21
-5e-05
3.26413e-21
-5e-05
3.86091e-22
-5e-05
-2.35707e-21
-5e-05
-4.70641e-21
-5e-05
-6.84921e-21
-5e-05
-6.24238e-22
-5e-05
1.0247e-21
-3.21796e-21
-5e-05
-2.4719e-18
-5e-05
5.2666e-19
-5e-05
-1.25374e-19
-5e-05
2.41569e-20
-5e-05
-1.02448e-20
-5e-05
-5.67906e-21
-5e-05
-7.09459e-21
-5e-05
-6.95981e-21
-5e-05
-6.78729e-21
-5e-05
-6.96369e-23
-5e-05
4.54459e-21
-5e-05
6.11247e-21
-5e-05
6.01827e-21
-5e-05
3.28287e-21
-5e-05
1.21739e-22
-5e-05
-2.83263e-21
-5e-05
-2.74944e-21
-5e-05
1.02924e-21
-5e-05
1.7952e-21
-2.97873e-21
-5e-05
7.06714e-19
-5e-05
-1.4986e-19
-5e-05
3.16817e-20
-5e-05
-1.25311e-20
-5e-05
-3.00086e-21
-5e-05
-5.3804e-21
-5e-05
-5.70555e-21
-5e-05
-3.91587e-21
-5e-05
-4.08925e-21
-5e-05
5.62122e-22
-5e-05
3.35609e-21
-5e-05
5.13725e-21
-5e-05
6.51704e-21
-5e-05
4.90241e-21
-5e-05
5.36807e-22
-5e-05
-2.65181e-21
-5e-05
-3.57337e-22
-5e-05
3.75718e-21
-5e-05
3.51212e-21
-4.20055e-22
-5e-05
1.91701e-18
-5e-05
-4.3562e-19
-5e-05
8.78157e-20
-5e-05
-2.99818e-20
-5e-05
2.58071e-21
-5e-05
2.16216e-21
-5e-05
3.26603e-21
-5e-05
3.43703e-21
-5e-05
2.51776e-21
-5e-05
-7.34308e-22
-5e-05
-3.12661e-21
-5e-05
-3.80145e-21
-5e-05
-3.47892e-21
-5e-05
-5.3935e-22
-5e-05
3.30943e-22
-5e-05
5.25285e-22
-5e-05
1.96648e-21
-5e-05
3.33231e-21
-5e-05
4.50796e-21
2.07549e-21
-5e-05
-2.8245e-18
-5e-05
5.91759e-19
-5e-05
-1.53341e-19
-5e-05
2.52828e-20
-5e-05
-9.85402e-21
-5e-05
3.66045e-21
-5e-05
1.15993e-21
-5e-05
-1.66561e-21
-5e-05
-1.21721e-21
-5e-05
-2.60308e-21
-5e-05
-5.17027e-21
-5e-05
-8.52668e-21
-5e-05
-1.0197e-20
-5e-05
-4.43592e-21
-5e-05
9.87827e-22
-5e-05
2.20833e-21
-5e-05
1.32495e-21
-5e-05
1.50075e-22
-5e-05
2.87535e-21
1.89506e-21
-5e-05
1.86227e-18
-5e-05
-4.02228e-19
-5e-05
8.36524e-20
-5e-05
-2.67841e-20
-5e-05
-6.12261e-22
-5e-05
-4.26755e-21
-5e-05
-5.68709e-21
-5e-05
-7.62945e-21
-5e-05
-2.0961e-21
-5e-05
1.37479e-21
-5e-05
4.53955e-22
-5e-05
-1.66836e-21
-5e-05
-1.45257e-21
-5e-05
-7.39614e-23
-5e-05
-1.16681e-21
-5e-05
-1.67233e-21
-5e-05
-6.05087e-22
-5e-05
-7.87434e-22
-5e-05
2.45088e-22
-1.24087e-22
-5e-05
-3.55028e-19
-5e-05
6.81757e-20
-5e-05
-2.26611e-20
-5e-05
-8.90007e-22
-5e-05
-3.52311e-21
-5e-05
-7.07906e-21
-5e-05
-1.0105e-20
-5e-05
-6.91478e-21
-5e-05
-2.96094e-22
-5e-05
1.48882e-21
-5e-05
1.52256e-21
-5e-05
4.53962e-21
-5e-05
5.64179e-21
-5e-05
-1.4855e-21
-5e-05
-7.71971e-21
-5e-05
-5.69633e-21
-5e-05
-2.81881e-21
-5e-05
-2.29953e-21
-5e-05
-1.827e-21
-2.25518e-21
-5e-05
-1.05726e-18
-5e-05
2.16202e-19
-5e-05
-5.26768e-20
-5e-05
1.04191e-20
-5e-05
-2.88661e-21
-5e-05
-4.78522e-21
-5e-05
-7.13026e-21
-5e-05
-4.19567e-21
-5e-05
-1.60741e-21
-5e-05
-4.66074e-21
-5e-05
-5.48447e-21
-5e-05
1.92261e-21
-5e-05
1.50194e-21
-5e-05
-3.75029e-21
-5e-05
-5.81038e-21
-5e-05
-4.43637e-21
-5e-05
-4.12634e-21
-5e-05
-2.82297e-21
-5e-05
-7.29989e-22
-1.1138e-21
-5e-05
2.49694e-18
-5e-05
-5.42263e-19
-5e-05
1.27091e-19
-5e-05
-2.88773e-20
-5e-05
5.26465e-21
-5e-05
-9.57377e-23
-5e-05
3.1964e-21
-5e-05
1.11914e-21
-5e-05
-1.49033e-21
-5e-05
-5.74638e-21
-5e-05
-8.10209e-21
-5e-05
-4.22717e-21
-5e-05
-5.01636e-21
-5e-05
-4.16185e-22
-5e-05
1.71349e-21
-5e-05
-5.22816e-22
-5e-05
-7.74338e-22
-5e-05
-5.38018e-22
-5e-05
-1.13175e-21
-5.1665e-22
-5e-05
-3.0286e-18
-5e-05
6.54679e-19
-5e-05
-1.52921e-19
-5e-05
3.35561e-20
-5e-05
-7.93655e-21
-5e-05
7.12999e-21
-5e-05
7.30609e-21
-5e-05
9.39768e-22
-5e-05
-5.6858e-21
-5e-05
-2.90498e-21
-5e-05
-2.49415e-21
-5e-05
-5.86227e-21
-5e-05
-5.67083e-21
-5e-05
-2.39946e-21
-5e-05
-1.42311e-21
-5e-05
-3.28167e-22
-5e-05
8.03582e-22
-5e-05
-1.42269e-21
-5e-05
-5.12579e-21
-2.61708e-21
-5e-05
1.56633e-18
-5e-05
-3.35867e-19
-5e-05
8.03596e-20
-5e-05
-1.74827e-20
-5e-05
-2.11748e-22
-5e-05
-8.46565e-22
-5e-05
1.28639e-21
-5e-05
-2.3572e-21
-5e-05
-6.51449e-21
-5e-05
1.89192e-21
-5e-05
5.53657e-21
-5e-05
-9.88414e-22
-5e-05
-2.00204e-21
-5e-05
-6.70877e-21
-5e-05
-7.83202e-21
-5e-05
-3.26969e-21
-5e-05
6.62268e-22
-5e-05
9.9535e-22
-5e-05
-3.27645e-21
-3.09165e-21
-5e-05
1.68725e-18
-5e-05
-3.47183e-19
-5e-05
8.60062e-20
-5e-05
-2.18455e-20
-5e-05
-1.96538e-21
-5e-05
-4.3458e-21
-5e-05
-4.46728e-22
-5e-05
-1.8843e-22
-5e-05
-3.56812e-21
-5e-05
-3.52857e-21
-5e-05
-1.62591e-21
-5e-05
-3.52075e-21
-5e-05
-3.55018e-21
-5e-05
-4.81615e-21
-5e-05
-3.09599e-21
-5e-05
-2.52614e-22
-5e-05
2.54676e-21
-5e-05
1.96901e-21
-5e-05
-4.9581e-22
-2.56965e-21
-5e-05
-3.64958e-18
-5e-05
8.07285e-19
-5e-05
-1.8288e-19
-5e-05
4.04154e-20
-5e-05
-9.87959e-21
-5e-05
6.41662e-22
-5e-05
-1.35183e-21
-5e-05
-2.75535e-21
-5e-05
-5.23574e-21
-5e-05
-1.15991e-20
-5e-05
-1.33393e-20
-5e-05
-1.02292e-20
-5e-05
-8.38329e-21
-5e-05
-2.30056e-21
-5e-05
2.55409e-21
-5e-05
5.31073e-21
-5e-05
3.78546e-21
-5e-05
-1.48937e-21
-5e-05
-8.46336e-22
-1.41755e-21
-5e-05
2.61364e-18
-5e-05
-5.80512e-19
-5e-05
1.34514e-19
-5e-05
-2.69766e-20
-5e-05
1.21511e-20
-5e-05
-1.76828e-21
-5e-05
-4.95294e-21
-5e-05
-7.85197e-21
-5e-05
-5.75053e-21
-5e-05
-8.11421e-21
-5e-05
-7.72701e-21
-5e-05
-4.97544e-21
-5e-05
-5.70082e-21
-5e-05
-3.40421e-21
-5e-05
1.08967e-22
-5e-05
3.54105e-21
-5e-05
-7.88859e-23
-5e-05
-1.60293e-21
-5e-05
1.66577e-21
4.62359e-22
-5e-05
2.00186e-18
-5e-05
-4.66044e-19
-5e-05
9.91837e-20
-5e-05
-2.44603e-20
-5e-05
7.81213e-21
-5e-05
-1.53466e-21
-5e-05
-2.49083e-21
-5e-05
-5.72304e-21
-5e-05
-4.3186e-21
-5e-05
-3.62539e-21
-5e-05
-1.82054e-21
-5e-05
1.79744e-22
-5e-05
4.1067e-22
-5e-05
-2.26744e-21
-5e-05
-4.04496e-21
-5e-05
-4.45634e-21
-5e-05
-6.14458e-21
-5e-05
-9.7333e-22
-5e-05
2.26012e-21
6.91418e-22
-5e-05
-3.64314e-18
-5e-05
7.73426e-19
-5e-05
-1.88126e-19
-5e-05
3.83708e-20
-5e-05
-1.37368e-20
-5e-05
-9.74421e-22
-5e-05
-1.42331e-21
-5e-05
-4.454e-21
-5e-05
-4.97795e-21
-5e-05
-1.67e-21
-5e-05
-2.64836e-21
-5e-05
-3.96478e-21
-5e-05
-1.47498e-21
-5e-05
-5.91356e-22
-5e-05
-4.39787e-21
-5e-05
-7.88066e-21
-5e-05
-5.55484e-21
-5e-05
7.2407e-23
-5e-05
-6.76399e-22
-7.388e-22
-5e-05
-5e-05
-5e-05
-5e-05
-5e-05
-5e-05
-5e-05
-5e-05
-5e-05
-5e-05
-5e-05
-5e-05
-5e-05
-5e-05
-5e-05
-5e-05
-5e-05
-5e-05
-5e-05
)
;

boundaryField
{
    movingWall
    {
        type            calculated;
        value           uniform -0;
    }
    fixedWalls
    {
        type            calculated;
        value           nonuniform List<scalar> 
60
(
5e-05
5e-05
5e-05
5e-05
5e-05
5e-05
5e-05
5e-05
5e-05
5e-05
5e-05
5e-05
5e-05
5e-05
5e-05
5e-05
5e-05
5e-05
5e-05
5e-05
-5e-05
-5e-05
-5e-05
-5e-05
-5e-05
-5e-05
-5e-05
-5e-05
-5e-05
-5e-05
-5e-05
-5e-05
-5e-05
-5e-05
-5e-05
-5e-05
-5e-05
-5e-05
-5e-05
-5e-05
0
0
0
0
0
0
0
0
0
0
0
0
0
0
0
0
0
0
0
0
)
;
    }
    frontAndBack
    {
        type            empty;
    }
}


// ************************************************************************* //
