/*--------------------------------*- C++ -*----------------------------------*\
| =========                 |                                                 |
| \\      /  F ield         | OpenFOAM: The Open Source CFD Toolbox           |
|  \\    /   O peration     | Version:  2506                                  |
|   \\  /    A nd           | Website:  www.openfoam.com                      |
|    \\/     M anipulation  |                                                 |
\*---------------------------------------------------------------------------*/
FoamFile
{
    version     2.0;
    format      ascii;
    arch        "LSB;label=32;scalar=64";
    class       volVectorField;
    location    "9.25";
    object      gradPhi;
}
// * * * * * * * * * * * * * * * * * * * * * * * * * * * * * * * * * * * * * //

dimensions      [0 2 -1 0 0 0 0];

internalField   nonuniform List<vector> 
400
(
(-0.02 9.52193e-17 0)
(1.48893e-16 -1.49276e-16 0)
(-4.46678e-17 4.40305e-17 0)
(8.27181e-18 -7.39688e-18 0)
(-3.30872e-18 2.54036e-18 0)
(-1.65436e-18 8.08791e-19 0)
(-1.65436e-18 1.26551e-18 0)
(0 -8.93882e-20 0)
(0 9.06024e-19 0)
(0 -4.54809e-19 0)
(1.65436e-18 -8.22548e-19 0)
(0 -6.27474e-19 0)
(0 2.13891e-19 0)
(0 -3.65319e-20 0)
(0 5.7745e-19 0)
(-1.65436e-18 1.69066e-18 0)
(0 1.00767e-18 0)
(0 -7.03864e-19 0)
(0 2.68284e-21 0)
(0 3.03253e-19 0)
(-0.02 -1.79784e-16 0)
(-2.54772e-16 2.53625e-16 0)
(7.94093e-17 -7.86587e-17 0)
(-1.32349e-17 1.29702e-17 0)
(3.30872e-18 -4.65855e-18 0)
(1.65436e-18 -1.98481e-18 0)
(3.30872e-18 -2.49264e-18 0)
(0 -9.31203e-20 0)
(0 -1.29926e-18 0)
(0 6.31776e-19 0)
(0 1.17876e-18 0)
(-1.65436e-18 1.01147e-18 0)
(1.65436e-18 -6.41416e-19 0)
(0 -1.3022e-19 0)
(0 -9.61846e-19 0)
(3.30872e-18 -2.91763e-18 0)
(-1.65436e-18 2.03202e-19 0)
(-1.65436e-18 2.42128e-18 0)
(0 2.39641e-20 0)
(1.65436e-18 -1.68202e-18 0)
(-0.02 4.29572e-17 0)
(5.62483e-17 -5.67141e-17 0)
(-2.15067e-17 2.21998e-17 0)
(4.96308e-18 -3.69424e-18 0)
(-1.65436e-18 1.09883e-18 0)
(1.65436e-18 -3.05067e-19 0)
(0 -1.02955e-18 0)
(1.65436e-18 -1.15166e-18 0)
(0 -7.87854e-19 0)
(0 -2.25684e-19 0)
(0 1.13906e-18 0)
(0 3.68879e-19 0)
(-1.65436e-18 1.13696e-18 0)
(0 5.08374e-20 0)
(0 -5.67153e-19 0)
(1.65436e-18 -4.72941e-19 0)
(1.65436e-18 -3.40377e-18 0)
(1.65436e-18 -1.9155e-18 0)
(0 3.6041e-20 0)
(-1.65436e-18 1.03711e-18 0)
(-0.02 1.09249e-16 0)
(1.45584e-16 -1.45801e-16 0)
(-3.97047e-17 3.88616e-17 0)
(9.92617e-18 -9.45673e-18 0)
(-1.65436e-18 9.29572e-19 0)
(0 1.05701e-18 0)
(-3.30872e-18 2.59718e-18 0)
(0 8.23264e-19 0)
(-1.65436e-18 1.17412e-18 0)
(0 2.4634e-19 0)
(1.65436e-18 -1.08527e-18 0)
(0 -4.28729e-20 0)
(0 -3.78192e-19 0)
(0 1.82179e-19 0)
(0 3.44355e-19 0)
(-1.65436e-18 9.17705e-19 0)
(-1.65436e-18 7.82435e-19 0)
(0 2.52563e-19 0)
(0 1.75278e-19 0)
(0 -5.13885e-19 0)
(-0.02 -1.3009e-16 0)
(-1.75362e-16 1.75612e-16 0)
(5.12852e-17 -5.15599e-17 0)
(-1.15805e-17 1.1729e-17 0)
(1.65436e-18 -1.48308e-18 0)
(1.65436e-18 -1.18473e-18 0)
(1.65436e-18 -1.9735e-18 0)
(1.65436e-18 -9.59781e-19 0)
(1.65436e-18 -1.48276e-18 0)
(0 -1.09194e-19 0)
(0 6.55032e-19 0)
(0 6.15128e-19 0)
(-1.65436e-18 1.06743e-18 0)
(0 4.8287e-19 0)
(0 5.58692e-19 0)
(-1.65436e-18 6.37226e-20 0)
(0 1.47818e-18 0)
(-1.65436e-18 -1.40496e-20 0)
(0 1.6942e-19 0)
(0 2.78663e-19 0)
(-0.02 7.60151e-17 0)
(1.05879e-16 -1.0444e-16 0)
(-3.30872e-17 3.22256e-17 0)
(8.27181e-18 -6.4987e-18 0)
(0 1.10278e-18 0)
(-1.65436e-18 9.06547e-19 0)
(0 7.86475e-19 0)
(-1.65436e-18 6.67582e-19 0)
(0 -2.78093e-19 0)
(0 -4.55208e-19 0)
(1.65436e-18 -2.9235e-19 0)
(0 3.34365e-21 0)
(0 9.22252e-20 0)
(0 4.94773e-19 0)
(0 2.7037e-19 0)
(-1.65436e-18 6.01461e-19 0)
(0 -3.81836e-19 0)
(-1.65436e-18 7.84352e-19 0)
(0 -1.19989e-19 0)
(0 2.85579e-19 0)
(-0.02 1.76515e-17 0)
(2.81241e-17 -2.92118e-17 0)
(-9.92617e-18 9.98207e-18 0)
(1.65436e-18 -2.44222e-18 0)
(0 1.59816e-19 0)
(0 8.74094e-19 0)
(0 6.777e-19 0)
(-1.65436e-18 1.63232e-18 0)
(-4.96308e-18 3.71056e-18 0)
(-1.65436e-18 9.94221e-19 0)
(1.65436e-18 -1.70516e-18 0)
(3.30872e-18 -2.9295e-18 0)
(3.30872e-18 -2.66333e-18 0)
(0 -8.35573e-19 0)
(0 1.16424e-19 0)
(0 -2.58591e-19 0)
(0 9.22886e-20 0)
(0 -4.88534e-19 0)
(0 1.18355e-18 0)
(-1.65436e-18 1.38224e-18 0)
(-0.02 -7.90358e-17 0)
(-1.27386e-16 1.26519e-16 0)
(4.79765e-17 -4.77599e-17 0)
(-8.27181e-18 7.68777e-18 0)
(1.65436e-18 -3.22046e-19 0)
(-1.65436e-18 7.11324e-19 0)
(-1.65436e-18 1.16301e-18 0)
(1.65436e-18 -1.03952e-18 0)
(3.30872e-18 -2.74461e-18 0)
(1.65436e-18 -1.48244e-18 0)
(0 1.99275e-19 0)
(0 6.62617e-19 0)
(0 -7.59201e-19 0)
(3.30872e-18 -1.99569e-18 0)
(0 -8.16705e-19 0)
(0 9.8863e-19 0)
(-3.30872e-18 1.58875e-18 0)
(0 2.37774e-19 0)
(1.65436e-18 -1.32639e-18 0)
(1.65436e-18 -1.26292e-18 0)
(-0.02 7.63985e-17 0)
(1.15805e-16 -1.15619e-16 0)
(-4.63221e-17 4.72188e-17 0)
(4.96308e-18 -6.62553e-18 0)
(1.65436e-18 -1.17852e-18 0)
(1.65436e-18 -1.69558e-18 0)
(3.30872e-18 -1.99334e-18 0)
(0 -1.24332e-18 0)
(0 4.85094e-19 0)
(0 9.36103e-19 0)
(-1.65436e-18 6.2844e-19 0)
(-1.65436e-18 2.28115e-19 0)
(-1.65436e-18 1.50558e-18 0)
(-1.65436e-18 2.24706e-18 0)
(-1.65436e-18 9.42765e-19 0)
(1.65436e-18 -6.80979e-19 0)
(1.65436e-18 -2.11693e-18 0)
(1.65436e-18 -1.04542e-18 0)
(-1.65436e-18 -1.57677e-19 0)
(0 7.44237e-19 0)
(-0.02 -4.23087e-17 0)
(-5.9557e-17 5.98239e-17 0)
(2.15067e-17 -2.10022e-17 0)
(-3.30872e-18 3.80124e-18 0)
(-3.30872e-18 1.98928e-18 0)
(1.65436e-18 -7.27542e-19 0)
(1.65436e-18 -1.54909e-18 0)
(0 -7.54384e-19 0)
(0 -5.66678e-19 0)
(0 5.43504e-19 0)
(0 8.63772e-19 0)
(-3.30872e-18 1.76843e-18 0)
(-1.65436e-18 1.62354e-18 0)
(1.65436e-18 -4.05309e-19 0)
(1.65436e-18 -2.43997e-18 0)
(1.65436e-18 -1.55224e-18 0)
(-1.65436e-18 5.07656e-19 0)
(0 5.4701e-19 0)
(0 1.79324e-19 0)
(0 -1.6874e-18 0)
(-0.02 2.18966e-17 0)
(1.32349e-17 -1.31963e-17 0)
(4.96308e-18 -5.49562e-18 0)
(0 -3.35693e-19 0)
(0 -1.34257e-19 0)
(0 7.34893e-19 0)
(-1.65436e-18 1.45211e-18 0)
(-1.65436e-18 2.0286e-18 0)
(-1.65436e-18 1.20543e-18 0)
(3.30872e-18 -1.99517e-18 0)
(1.65436e-18 -2.26064e-18 0)
(0 -6.048e-19 0)
(0 -1.66255e-19 0)
(1.65436e-18 -1.32321e-18 0)
(1.65436e-18 4.52354e-19 0)
(-3.30872e-18 1.11512e-18 0)
(1.65436e-18 -8.61059e-19 0)
(1.65436e-18 -1.62853e-18 0)
(0 -7.50366e-19 0)
(0 8.61228e-19 0)
(-0.02 3.21036e-18 0)
(3.97047e-17 -4.06577e-17 0)
(-3.30872e-17 3.41746e-17 0)
(1.65436e-18 -2.23293e-18 0)
(0 -3.99224e-20 0)
(0 6.23534e-19 0)
(-1.65436e-18 8.08274e-19 0)
(0 -1.21284e-19 0)
(0 -4.2835e-19 0)
(0 6.18155e-19 0)
(1.65436e-18 -5.04759e-19 0)
(0 -1.20953e-18 0)
(1.65436e-18 -2.47234e-18 0)
(-1.65436e-18 1.79342e-18 0)
(-1.65436e-18 2.77612e-18 0)
(0 3.15227e-20 0)
(0 7.61499e-19 0)
(-1.65436e-18 1.96319e-18 0)
(-1.65436e-18 4.08418e-19 0)
(0 1.19648e-18 0)
(-0.02 -5.37573e-17 0)
(-1.0257e-16 1.01976e-16 0)
(5.45939e-17 -5.32589e-17 0)
(-4.96308e-18 5.9699e-18 0)
(0 -7.05421e-19 0)
(-1.65436e-18 1.48042e-18 0)
(-3.30872e-18 2.59074e-18 0)
(-1.65436e-18 8.83966e-19 0)
(1.65436e-18 -9.33319e-19 0)
(0 4.63915e-20 0)
(-1.65436e-18 2.00583e-18 0)
(1.65436e-18 -6.70838e-19 0)
(0 -2.0594e-19 0)
(1.65436e-18 -1.69384e-18 0)
(1.65436e-18 -2.07484e-18 0)
(-1.65436e-18 8.72211e-19 0)
(0 1.01151e-18 0)
(0 -6.1993e-19 0)
(0 -8.03528e-19 0)
(3.30872e-18 -2.65857e-18 0)
(-0.02 5.55864e-17 0)
(9.42986e-17 -9.2956e-17 0)
(-4.46678e-17 4.38562e-17 0)
(4.96308e-18 -4.81766e-18 0)
(1.65436e-18 -8.65486e-20 0)
(1.65436e-18 -1.18405e-18 0)
(0 -1.8084e-18 0)
(1.65436e-18 -6.85244e-19 0)
(0 -6.12994e-19 0)
(0 1.12256e-18 0)
(-1.65436e-18 8.1229e-19 0)
(0 1.22734e-18 0)
(-1.65436e-18 1.55634e-18 0)
(0 2.49615e-19 0)
(1.65436e-18 -7.14688e-19 0)
(0 -1.34346e-18 0)
(0 -7.75746e-19 0)
(0 2.92844e-19 0)
(0 1.87613e-19 0)
(-1.65436e-18 1.623e-18 0)
(-0.02 3.67109e-17 0)
(3.30872e-17 -3.20574e-17 0)
(-3.30872e-18 2.63922e-18 0)
(3.30872e-18 -3.08265e-18 0)
(0 4.03675e-19 0)
(3.30872e-18 -1.06159e-18 0)
(0 -1.20542e-18 0)
(0 -4.62658e-19 0)
(0 7.36784e-19 0)
(0 -1.06378e-18 0)
(0 -1.46032e-19 0)
(0 -5.5443e-19 0)
(0 -5.21596e-19 0)
(1.65436e-18 -4.13542e-19 0)
(0 8.99897e-19 0)
(-1.65436e-18 6.64927e-19 0)
(1.65436e-18 1.41822e-19 0)
(-1.65436e-18 5.03077e-19 0)
(0 1.05226e-18 0)
(0 -6.20571e-19 0)
(-0.02 -1.42401e-16 0)
(-1.90252e-16 1.90835e-16 0)
(5.29396e-17 -5.30646e-17 0)
(-1.15805e-17 1.10237e-17 0)
(1.65436e-18 -1.51525e-18 0)
(0 5.93562e-19 0)
(0 1.07693e-18 0)
(-1.65436e-18 2.61729e-19 0)
(0 1.26508e-19 0)
(3.30872e-18 -2.10048e-18 0)
(4.96308e-18 -4.7393e-18 0)
(0 -1.10317e-18 0)
(1.65436e-18 -5.97021e-19 0)
(-1.65436e-18 1.55534e-18 0)
(0 1.1412e-18 0)
(-1.65436e-18 1.48551e-18 0)
(-1.65436e-18 1.42841e-18 0)
(1.65436e-18 -1.03658e-18 0)
(0 -9.31481e-19 0)
(0 4.63356e-19 0)
(-0.02 1.66247e-16 0)
(2.2003e-16 -2.18989e-16 0)
(-6.12114e-17 6.14287e-17 0)
(9.92617e-18 -1.03239e-17 0)
(-4.96308e-18 4.92826e-18 0)
(0 9.31221e-19 0)
(1.65436e-18 -1.88267e-18 0)
(1.65436e-18 -1.4175e-18 0)
(1.65436e-18 -4.62406e-19 0)
(-1.65436e-18 1.60703e-18 0)
(-3.30872e-18 3.49288e-18 0)
(-1.65436e-18 7.8209e-19 0)
(1.65436e-18 -1.26788e-18 0)
(3.30872e-18 -1.75998e-18 0)
(0 -3.67598e-19 0)
(1.65436e-18 -9.61939e-20 0)
(0 -1.61247e-18 0)
(0 1.34734e-19 0)
(-1.65436e-18 1.28641e-18 0)
(0 3.06446e-19 0)
(-0.02 6.10822e-18 0)
(1.65436e-18 -8.91287e-19 0)
(4.96308e-18 -5.59766e-18 0)
(1.65436e-18 -1.71858e-18 0)
(1.65436e-18 -1.76629e-18 0)
(3.30872e-18 -1.53757e-18 0)
(-1.65436e-18 8.69535e-19 0)
(-1.65436e-18 5.07836e-19 0)
(-1.65436e-18 1.02868e-18 0)
(0 1.73496e-19 0)
(0 -7.03353e-19 0)
(-1.65436e-18 1.12693e-18 0)
(-1.65436e-18 3.72168e-18 0)
(-1.65436e-18 1.64204e-18 0)
(1.65436e-18 -8.57597e-19 0)
(0 -1.94892e-18 0)
(1.65436e-18 -1.10925e-18 0)
(0 -3.25384e-19 0)
(-1.65436e-18 -9.09088e-20 0)
(0 5.03581e-19 0)
(-0.02 -1.78265e-16 0)
(-2.29956e-16 2.30471e-16 0)
(5.79026e-17 -5.78098e-17 0)
(-1.15805e-17 1.27409e-17 0)
(1.65436e-18 -4.16839e-18 0)
(-1.65436e-18 9.94504e-19 0)
(0 1.01314e-18 0)
(0 5.04901e-19 0)
(1.65436e-18 -1.73349e-18 0)
(0 6.20125e-19 0)
(-1.65436e-18 1.55738e-18 0)
(0 -9.65859e-19 0)
(3.30872e-18 -1.94833e-18 0)
(1.65436e-18 -3.97003e-19 0)
(0 -4.45838e-19 0)
(0 -1.48329e-18 0)
(1.65436e-18 -2.52623e-19 0)
(-1.65436e-18 1.36011e-18 0)
(0 -7.25726e-19 0)
(1.65436e-18 -1.21599e-18 0)
(-0.02 9.83917e-17 0)
(1.37312e-16 -1.39052e-16 0)
(-3.80503e-17 3.75901e-17 0)
(6.61744e-18 -7.29695e-18 0)
(-1.65436e-18 2.90571e-18 0)
(0 -3.4963e-20 0)
(0 -3.66005e-19 0)
(-1.65436e-18 7.07659e-19 0)
(-3.30872e-18 1.95661e-18 0)
(0 3.47068e-19 0)
(1.65436e-18 -2.73309e-19 0)
(-1.65436e-18 9.14113e-19 0)
(0 7.03859e-19 0)
(0 2.92758e-19 0)
(0 1.1666e-18 0)
(-1.65436e-18 2.32278e-18 0)
(-1.65436e-18 1.51025e-18 0)
(1.65436e-18 -7.19149e-19 0)
(0 2.01112e-19 0)
(0 6.56196e-19 0)
)
;

boundaryField
{
    movingWall
    {
        type            extrapolatedCalculated;
        value           nonuniform List<vector> 
20
(
(-0.02 9.83917e-17 0)
(1.37312e-16 -1.39052e-16 0)
(-3.80503e-17 3.75901e-17 0)
(6.61744e-18 -7.29695e-18 0)
(-1.65436e-18 2.90571e-18 0)
(0 -3.4963e-20 0)
(0 -3.66005e-19 0)
(-1.65436e-18 7.07659e-19 0)
(-3.30872e-18 1.95661e-18 0)
(0 3.47068e-19 0)
(1.65436e-18 -2.73309e-19 0)
(-1.65436e-18 9.14113e-19 0)
(0 7.03859e-19 0)
(0 2.92758e-19 0)
(0 1.1666e-18 0)
(-1.65436e-18 2.32278e-18 0)
(-1.65436e-18 1.51025e-18 0)
(1.65436e-18 -7.19149e-19 0)
(0 2.01112e-19 0)
(0 6.56196e-19 0)
)
;
    }
    fixedWalls
    {
        type            extrapolatedCalculated;
        value           nonuniform List<vector> 
60
(
(-0.02 9.52193e-17 0)
(-0.02 -1.79784e-16 0)
(-0.02 4.29572e-17 0)
(-0.02 1.09249e-16 0)
(-0.02 -1.3009e-16 0)
(-0.02 7.60151e-17 0)
(-0.02 1.76515e-17 0)
(-0.02 -7.90358e-17 0)
(-0.02 7.63985e-17 0)
(-0.02 -4.23087e-17 0)
(-0.02 2.18966e-17 0)
(-0.02 3.21036e-18 0)
(-0.02 -5.37573e-17 0)
(-0.02 5.55864e-17 0)
(-0.02 3.67109e-17 0)
(-0.02 -1.42401e-16 0)
(-0.02 1.66247e-16 0)
(-0.02 6.10822e-18 0)
(-0.02 -1.78265e-16 0)
(-0.02 9.83917e-17 0)
(0 3.03253e-19 0)
(1.65436e-18 -1.68202e-18 0)
(-1.65436e-18 1.03711e-18 0)
(0 -5.13885e-19 0)
(0 2.78663e-19 0)
(0 2.85579e-19 0)
(-1.65436e-18 1.38224e-18 0)
(1.65436e-18 -1.26292e-18 0)
(0 7.44237e-19 0)
(0 -1.6874e-18 0)
(0 8.61228e-19 0)
(0 1.19648e-18 0)
(3.30872e-18 -2.65857e-18 0)
(-1.65436e-18 1.623e-18 0)
(0 -6.20571e-19 0)
(0 4.63356e-19 0)
(0 3.06446e-19 0)
(0 5.03581e-19 0)
(1.65436e-18 -1.21599e-18 0)
(0 6.56196e-19 0)
(-0.02 9.52193e-17 0)
(1.48893e-16 -1.49276e-16 0)
(-4.46678e-17 4.40305e-17 0)
(8.27181e-18 -7.39688e-18 0)
(-3.30872e-18 2.54036e-18 0)
(-1.65436e-18 8.08791e-19 0)
(-1.65436e-18 1.26551e-18 0)
(0 -8.93882e-20 0)
(0 9.06024e-19 0)
(0 -4.54809e-19 0)
(1.65436e-18 -8.22548e-19 0)
(0 -6.27474e-19 0)
(0 2.13891e-19 0)
(0 -3.65319e-20 0)
(0 5.7745e-19 0)
(-1.65436e-18 1.69066e-18 0)
(0 1.00767e-18 0)
(0 -7.03864e-19 0)
(0 2.68284e-21 0)
(0 3.03253e-19 0)
)
;
    }
    frontAndBack
    {
        type            empty;
    }
}


// ************************************************************************* //
