/*--------------------------------*- C++ -*----------------------------------*\
| =========                 |                                                 |
| \\      /  F ield         | OpenFOAM: The Open Source CFD Toolbox           |
|  \\    /   O peration     | Version:  2506                                  |
|   \\  /    A nd           | Website:  www.openfoam.com                      |
|    \\/     M anipulation  |                                                 |
\*---------------------------------------------------------------------------*/
FoamFile
{
    version     2.0;
    format      ascii;
    arch        "LSB;label=32;scalar=64";
    class       volTensorField;
    location    "9.25";
    object      gradU;
}
// * * * * * * * * * * * * * * * * * * * * * * * * * * * * * * * * * * * * * //

dimensions      [0 0 -1 0 0 0 0];

internalField   nonuniform List<tensor> 
400
(
(-9.75782e-13 1.2949e-11 0 1.11131e-12 1.78062e-11 0 0 0 0)
(1.43657e-12 -1.56333e-11 0 -4.33681e-13 -3.82156e-12 0 0 0 0)
(-3.79471e-13 3.33496e-12 0 -5.42101e-14 8.94941e-13 0 0 0 0)
(2.71051e-14 -7.83681e-13 0 -2.71051e-14 -1.89068e-13 0 0 0 0)
(-2.71051e-14 1.79834e-13 0 -2.71051e-14 5.28185e-14 0 0 0 0)
(0 -3.36173e-14 0 0 4.85454e-15 0 0 0 0)
(-2.71051e-14 -1.88691e-15 0 2.71051e-14 1.36229e-14 0 0 0 0)
(0 -7.41634e-15 0 0 1.30431e-15 0 0 0 0)
(-2.71051e-14 -3.3361e-15 0 2.71051e-14 6.64869e-15 0 0 0 0)
(2.71051e-14 -7.38562e-15 0 0 -5.86992e-15 0 0 0 0)
(0 1.38883e-15 0 5.42101e-14 -8.67871e-15 0 0 0 0)
(0 8.07604e-15 0 -5.42101e-14 -5.95253e-15 0 0 0 0)
(0 6.60336e-15 0 0 3.31583e-15 0 0 0 0)
(0 7.40313e-15 0 2.71051e-14 9.97254e-15 0 0 0 0)
(0 5.99921e-15 0 0 2.15257e-14 0 0 0 0)
(-5.42101e-14 -1.03187e-14 0 0 2.02992e-14 0 0 0 0)
(0 -1.49262e-14 0 0 1.38732e-14 0 0 0 0)
(0 2.89029e-15 0 0 -2.69451e-16 0 0 0 0)
(0 4.73633e-15 0 -5.42101e-14 3.36492e-15 0 0 0 0)
(0 -5.01759e-15 0 0 -4.22721e-15 0 0 0 0)
(1.76183e-12 1.0356e-12 0 9.21572e-13 -3.1546e-11 0 0 0 0)
(-2.62919e-12 -1.27791e-12 0 -2.71051e-13 6.71298e-12 0 0 0 0)
(7.04731e-13 2.97532e-13 0 -8.13152e-14 -1.59763e-12 0 0 0 0)
(0 -5.84421e-14 0 -8.13152e-14 3.39866e-13 0 0 0 0)
(5.42101e-14 1.4089e-14 0 -1.35525e-13 -9.48767e-14 0 0 0 0)
(5.42101e-14 -5.57829e-15 0 -1.35525e-13 -2.05244e-14 0 0 0 0)
(2.71051e-14 -1.66332e-15 0 -1.0842e-13 -3.50295e-14 0 0 0 0)
(0 4.42124e-16 0 -5.42101e-14 -9.46328e-15 0 0 0 0)
(5.42101e-14 -3.83813e-15 0 -2.71051e-14 -1.00857e-14 0 0 0 0)
(0 -7.94178e-15 0 -5.42101e-14 7.25638e-15 0 0 0 0)
(-5.42101e-14 -1.47144e-15 0 -5.42101e-14 1.51441e-14 0 0 0 0)
(-2.71051e-14 3.9185e-15 0 0 6.81888e-15 0 0 0 0)
(2.71051e-14 9.32171e-15 0 -8.13152e-14 -5.57249e-15 0 0 0 0)
(0 1.08067e-14 0 -1.0842e-13 -1.266e-14 0 0 0 0)
(0 4.32742e-15 0 -5.42101e-14 -2.83974e-14 0 0 0 0)
(5.42101e-14 2.66619e-15 0 -8.13152e-14 -3.13079e-14 0 0 0 0)
(0 -5.64238e-15 0 0 -4.41384e-15 0 0 0 0)
(-5.42101e-14 -1.33985e-14 0 2.71051e-14 1.24139e-14 0 0 0 0)
(0 -8.69409e-15 0 5.42101e-14 -5.97973e-15 0 0 0 0)
(5.42101e-14 5.87988e-15 0 0 -8.88802e-15 0 0 0 0)
(-3.52366e-13 -1.18841e-11 0 -4.68917e-12 9.36999e-12 0 0 0 0)
(4.60786e-13 1.43151e-11 0 1.43657e-12 -2.02721e-12 0 0 0 0)
(-1.89735e-13 -3.03816e-12 0 5.42101e-14 4.54713e-13 0 0 0 0)
(0 7.19069e-13 0 1.6263e-13 -1.25895e-13 0 0 0 0)
(0 -1.80557e-13 0 1.89735e-13 9.67693e-15 0 0 0 0)
(0 2.62299e-14 0 1.6263e-13 -1.31793e-14 0 0 0 0)
(0 9.17417e-15 0 8.13152e-14 -8.23474e-15 0 0 0 0)
(2.71051e-14 1.75275e-14 0 5.42101e-14 -9.4356e-15 0 0 0 0)
(5.42101e-14 1.33836e-14 0 2.71051e-14 -9.01447e-15 0 0 0 0)
(-5.42101e-14 1.78442e-14 0 0 4.21858e-15 0 0 0 0)
(0 9.51334e-16 0 0 1.55226e-14 0 0 0 0)
(0 -1.26406e-14 0 5.42101e-14 1.47277e-14 0 0 0 0)
(-2.71051e-14 -1.28756e-14 0 8.13152e-14 7.18567e-15 0 0 0 0)
(0 -1.54218e-14 0 2.71051e-14 -6.8317e-15 0 0 0 0)
(0 -1.26486e-14 0 5.42101e-14 -1.98671e-14 0 0 0 0)
(0 1.36649e-14 0 2.71051e-14 -2.4284e-14 0 0 0 0)
(8.13152e-14 2.87955e-14 0 -5.42101e-14 -3.21899e-14 0 0 0 0)
(5.42101e-14 1.32441e-15 0 -2.71051e-14 -4.59128e-15 0 0 0 0)
(-2.71051e-14 -1.65656e-14 0 2.71051e-14 2.4646e-15 0 0 0 0)
(-2.71051e-14 9.85016e-15 0 2.71051e-14 -7.51315e-16 0 0 0 0)
(-1.57209e-12 8.37838e-12 0 2.84603e-12 1.54876e-11 0 0 0 0)
(2.08709e-12 -1.01932e-11 0 -7.58942e-13 -3.33966e-12 0 0 0 0)
(-5.14996e-13 2.19884e-12 0 1.35525e-13 7.86289e-13 0 0 0 0)
(1.0842e-13 -5.03478e-13 0 2.71051e-14 -1.80746e-13 0 0 0 0)
(0 1.26805e-13 0 2.71051e-14 4.80847e-14 0 0 0 0)
(-2.71051e-14 -2.349e-14 0 2.71051e-14 1.45015e-14 0 0 0 0)
(-5.42101e-14 2.08036e-15 0 5.42101e-14 2.1316e-14 0 0 0 0)
(-2.71051e-14 -3.37608e-16 0 2.71051e-14 1.00948e-15 0 0 0 0)
(0 9.81605e-15 0 2.71051e-14 -1.09678e-15 0 0 0 0)
(0 1.65953e-14 0 1.0842e-13 -5.73895e-15 0 0 0 0)
(2.71051e-14 9.03768e-15 0 5.42101e-14 -6.25024e-15 0 0 0 0)
(0 -4.41846e-15 0 5.42101e-14 2.03723e-15 0 0 0 0)
(0 -1.22377e-14 0 5.42101e-14 8.1275e-15 0 0 0 0)
(0 -1.6246e-14 0 8.13152e-14 1.10636e-14 0 0 0 0)
(0 -1.31248e-14 0 5.42101e-14 1.73105e-14 0 0 0 0)
(-2.71051e-14 -9.65664e-15 0 8.13152e-14 1.6467e-14 0 0 0 0)
(-2.71051e-14 1.40503e-14 0 8.13152e-14 -4.66625e-15 0 0 0 0)
(0 2.1256e-14 0 0 -1.00501e-14 0 0 0 0)
(0 -4.85412e-15 0 -2.71051e-14 4.24901e-15 0 0 0 0)
(0 4.1666e-15 0 -2.71051e-14 9.94702e-16 0 0 0 0)
(1.68051e-12 2.63878e-13 0 9.75782e-13 -2.10053e-11 0 0 0 0)
(-2.24972e-12 -3.86196e-13 0 -2.71051e-13 4.58208e-12 0 0 0 0)
(5.96311e-13 1.20755e-13 0 0 -1.03981e-12 0 0 0 0)
(-1.0842e-13 -1.91355e-14 0 -5.42101e-14 2.52471e-13 0 0 0 0)
(0 1.46913e-14 0 -2.71051e-14 -5.66825e-14 0 0 0 0)
(5.42101e-14 -5.38817e-16 0 0 -8.36863e-15 0 0 0 0)
(2.71051e-14 -4.31784e-15 0 0 -2.0053e-14 0 0 0 0)
(2.71051e-14 -4.88526e-15 0 2.71051e-14 -1.12542e-14 0 0 0 0)
(2.71051e-14 6.63512e-15 0 0 -1.36009e-14 0 0 0 0)
(0 1.26907e-14 0 0 -1.44637e-16 0 0 0 0)
(0 8.72751e-15 0 2.71051e-14 2.44058e-15 0 0 0 0)
(0 1.73717e-15 0 0 6.81861e-15 0 0 0 0)
(-2.71051e-14 -3.84923e-15 0 0 1.10166e-14 0 0 0 0)
(0 -6.23876e-15 0 2.71051e-14 1.15871e-14 0 0 0 0)
(0 -7.24516e-15 0 0 9.91525e-15 0 0 0 0)
(-2.71051e-14 -8.3119e-15 0 0 7.4951e-15 0 0 0 0)
(-2.71051e-14 2.27839e-15 0 0 1.63991e-14 0 0 0 0)
(0 1.02397e-14 0 0 6.6139e-15 0 0 0 0)
(0 -5.52077e-15 0 0 3.08198e-15 0 0 0 0)
(0 4.60645e-15 0 0 9.56937e-16 0 0 0 0)
(-7.86047e-13 -8.04485e-12 0 -2.35814e-12 1.27145e-11 0 0 0 0)
(1.13841e-12 9.77231e-12 0 6.77626e-13 -2.70608e-12 0 0 0 0)
(-3.25261e-13 -2.13077e-12 0 0 6.28222e-13 0 0 0 0)
(2.71051e-14 4.79651e-13 0 5.42101e-14 -1.46752e-13 0 0 0 0)
(2.71051e-14 -1.34035e-13 0 8.13152e-14 2.89757e-14 0 0 0 0)
(-2.71051e-14 1.31395e-14 0 0 1.19463e-15 0 0 0 0)
(0 -8.05177e-16 0 0 5.55616e-15 0 0 0 0)
(0 6.11446e-15 0 0 1.21758e-14 0 0 0 0)
(-2.71051e-14 2.09256e-14 0 -5.42101e-14 1.07922e-14 0 0 0 0)
(0 3.26368e-14 0 -1.35525e-13 2.52703e-15 0 0 0 0)
(2.71051e-14 1.60009e-14 0 -1.35525e-13 -4.75402e-15 0 0 0 0)
(0 4.15755e-15 0 -5.42101e-14 -3.90089e-15 0 0 0 0)
(0 -7.46917e-15 0 0 1.99508e-15 0 0 0 0)
(0 -1.73474e-14 0 -2.71051e-14 6.47815e-15 0 0 0 0)
(0 -1.72169e-14 0 0 1.66027e-15 0 0 0 0)
(-2.71051e-14 -3.17282e-15 0 0 7.23298e-16 0 0 0 0)
(0 1.31691e-14 0 0 9.56841e-15 0 0 0 0)
(-2.71051e-14 7.93888e-15 0 0 1.09118e-14 0 0 0 0)
(2.71051e-14 -1.05111e-14 0 0 6.8677e-15 0 0 0 0)
(-2.71051e-14 1.27678e-16 0 2.71051e-14 1.02347e-14 0 0 0 0)
(0 1.02723e-11 0 1.89735e-12 4.8412e-12 0 0 0 0)
(8.13152e-14 -1.24724e-11 0 -7.58942e-13 -1.14304e-12 0 0 0 0)
(-2.71051e-14 2.68008e-12 0 -1.0842e-13 2.24536e-13 0 0 0 0)
(0 -6.18381e-13 0 -1.0842e-13 -6.98031e-14 0 0 0 0)
(0 1.62638e-13 0 -1.35525e-13 2.23263e-14 0 0 0 0)
(-2.71051e-14 -2.39583e-14 0 -1.0842e-13 3.01703e-14 0 0 0 0)
(0 6.6633e-15 0 -1.35525e-13 3.58863e-14 0 0 0 0)
(-2.71051e-14 3.5075e-16 0 -1.0842e-13 2.94116e-14 0 0 0 0)
(-8.13152e-14 -3.01361e-15 0 -8.13152e-14 2.6428e-14 0 0 0 0)
(-5.42101e-14 -2.85549e-15 0 0 -5.18572e-15 0 0 0 0)
(5.42101e-14 2.29959e-15 0 -2.71051e-14 -2.59308e-14 0 0 0 0)
(8.13152e-14 8.48628e-15 0 -5.42101e-14 -3.57548e-14 0 0 0 0)
(2.71051e-14 6.52981e-15 0 -1.0842e-13 -3.99838e-14 0 0 0 0)
(2.71051e-14 -6.57357e-15 0 -2.71051e-14 -2.1767e-14 0 0 0 0)
(0 -1.3e-14 0 0 -8.23456e-16 0 0 0 0)
(-2.71051e-14 -4.03759e-16 0 0 1.27084e-14 0 0 0 0)
(0 1.24669e-14 0 -2.71051e-14 9.29527e-15 0 0 0 0)
(0 7.53896e-15 0 0 -1.6995e-15 0 0 0 0)
(2.71051e-14 -6.19787e-15 0 0 3.98336e-15 0 0 0 0)
(-5.42101e-14 -1.24959e-14 0 0 9.9822e-15 0 0 0 0)
(3.52366e-13 -4.34668e-12 0 -5.14996e-13 -1.8966e-11 0 0 0 0)
(-8.40257e-13 5.15564e-12 0 2.71051e-13 4.10951e-12 0 0 0 0)
(2.98156e-13 -1.05753e-12 0 0 -9.64628e-13 0 0 0 0)
(5.42101e-14 2.77442e-13 0 -2.71051e-14 2.21059e-13 0 0 0 0)
(0 -3.40618e-14 0 0 -4.97389e-14 0 0 0 0)
(0 2.66996e-14 0 -2.71051e-14 5.99317e-15 0 0 0 0)
(-5.42101e-14 -1.56383e-15 0 2.71051e-14 -8.42441e-15 0 0 0 0)
(5.42101e-14 -3.34382e-15 0 0 -2.04105e-14 0 0 0 0)
(5.42101e-14 -1.36717e-14 0 8.13152e-14 -1.49399e-14 0 0 0 0)
(0 -1.9722e-14 0 8.13152e-14 -7.47508e-15 0 0 0 0)
(2.71051e-14 -1.45682e-14 0 2.71051e-14 -8.17462e-15 0 0 0 0)
(0 -9.89551e-15 0 8.13152e-14 -1.89009e-14 0 0 0 0)
(0 6.51859e-15 0 0 -2.68724e-14 0 0 0 0)
(5.42101e-14 2.1813e-14 0 -5.42101e-14 -1.55863e-14 0 0 0 0)
(2.71051e-14 1.72586e-14 0 -5.42101e-14 2.62754e-15 0 0 0 0)
(-2.71051e-14 6.94591e-15 0 -2.71051e-14 6.73219e-15 0 0 0 0)
(-5.42101e-14 -1.23878e-15 0 -5.42101e-14 -2.56613e-15 0 0 0 0)
(0 2.62697e-15 0 -5.42101e-14 -1.27289e-14 0 0 0 0)
(5.42101e-14 1.17061e-15 0 0 -6.53043e-15 0 0 0 0)
(0 -1.38379e-14 0 -2.71051e-14 -7.21731e-16 0 0 0 0)
(-2.71051e-13 -4.58426e-12 0 -3.25261e-13 1.87471e-11 0 0 0 0)
(6.23416e-13 5.52897e-12 0 2.71051e-13 -3.97595e-12 0 0 0 0)
(-3.52366e-13 -1.20837e-12 0 1.0842e-13 9.47975e-13 0 0 0 0)
(-5.42101e-14 2.96508e-13 0 8.13152e-14 -2.08268e-13 0 0 0 0)
(5.42101e-14 -5.24275e-14 0 5.42101e-14 3.6967e-14 0 0 0 0)
(2.71051e-14 1.73562e-14 0 8.13152e-14 -3.1712e-14 0 0 0 0)
(5.42101e-14 -1.97404e-14 0 1.0842e-13 -2.7388e-14 0 0 0 0)
(0 -6.16473e-15 0 1.0842e-13 -2.38554e-14 0 0 0 0)
(0 9.92185e-15 0 5.42101e-14 -3.51555e-15 0 0 0 0)
(-2.71051e-14 3.90978e-15 0 5.42101e-14 1.59115e-14 0 0 0 0)
(0 -9.12626e-15 0 8.13152e-14 2.24969e-14 0 0 0 0)
(-2.71051e-14 -1.02115e-14 0 0 2.74333e-14 0 0 0 0)
(-2.71051e-14 9.84446e-15 0 5.42101e-14 3.49778e-14 0 0 0 0)
(-5.42101e-14 2.29264e-14 0 0 1.74478e-14 0 0 0 0)
(0 9.31847e-15 0 0 -8.61855e-15 0 0 0 0)
(0 -5.59742e-15 0 0 -1.55226e-14 0 0 0 0)
(5.42101e-14 -6.99425e-15 0 5.42101e-14 -7.72014e-15 0 0 0 0)
(0 3.57466e-15 0 5.42101e-14 -3.75004e-15 0 0 0 0)
(0 5.80933e-15 0 0 -1.05211e-14 0 0 0 0)
(0 -5.24379e-15 0 0 -8.0766e-15 0 0 0 0)
(3.25261e-13 1.04244e-11 0 -2.98156e-13 -8.86921e-12 0 0 0 0)
(-4.60786e-13 -1.26435e-11 0 -1.89735e-13 1.88161e-12 0 0 0 0)
(1.89735e-13 2.71015e-12 0 -1.35525e-13 -4.25254e-13 0 0 0 0)
(0 -6.33566e-13 0 2.71051e-14 1.03576e-13 0 0 0 0)
(-1.0842e-13 1.42494e-13 0 0 -1.16434e-14 0 0 0 0)
(5.42101e-14 -3.76555e-14 0 -5.42101e-14 -1.12461e-14 0 0 0 0)
(2.71051e-14 6.2928e-15 0 -5.42101e-14 -1.76718e-14 0 0 0 0)
(2.71051e-14 2.05287e-14 0 -1.0842e-13 2.85868e-15 0 0 0 0)
(0 2.60951e-14 0 -1.0842e-13 7.20002e-15 0 0 0 0)
(-2.71051e-14 6.29044e-15 0 -1.0842e-13 4.56101e-16 0 0 0 0)
(-2.71051e-14 -3.04637e-15 0 -8.13152e-14 4.27442e-15 0 0 0 0)
(0 2.5854e-15 0 -2.71051e-14 2.48319e-14 0 0 0 0)
(-5.42101e-14 -3.46684e-15 0 -5.42101e-14 2.83774e-14 0 0 0 0)
(0 -2.17833e-14 0 5.42101e-14 -5.64614e-15 0 0 0 0)
(8.13152e-14 -1.57119e-14 0 0 -2.62116e-14 0 0 0 0)
(0 7.84432e-15 0 0 -1.6096e-14 0 0 0 0)
(-2.71051e-14 1.05338e-14 0 0 -8.85488e-15 0 0 0 0)
(0 -1.73961e-16 0 0 -6.04838e-15 0 0 0 0)
(0 -3.15595e-15 0 0 -8.28836e-15 0 0 0 0)
(0 4.75979e-15 0 2.71051e-14 -8.52439e-15 0 0 0 0)
(-7.86047e-13 -1.15719e-11 0 8.94467e-13 -2.80892e-12 0 0 0 0)
(8.13152e-13 1.39729e-11 0 5.42101e-14 5.92104e-13 0 0 0 0)
(-1.6263e-13 -2.98641e-12 0 2.43945e-13 -1.20063e-13 0 0 0 0)
(8.13152e-14 7.10118e-13 0 -2.71051e-14 4.52366e-14 0 0 0 0)
(0 -1.6725e-13 0 5.42101e-14 2.546e-15 0 0 0 0)
(0 1.13278e-14 0 5.42101e-14 9.17539e-15 0 0 0 0)
(-2.71051e-14 -5.63568e-15 0 5.42101e-14 1.18991e-14 0 0 0 0)
(-5.42101e-14 1.87071e-14 0 0 1.08764e-14 0 0 0 0)
(0 7.51927e-15 0 0 -5.24526e-15 0 0 0 0)
(5.42101e-14 9.84174e-16 0 0 -2.45982e-14 0 0 0 0)
(2.71051e-14 1.52496e-14 0 5.42101e-14 -2.80281e-14 0 0 0 0)
(0 1.38915e-14 0 2.71051e-14 -1.0468e-14 0 0 0 0)
(0 -2.06336e-14 0 1.0842e-13 -1.65594e-14 0 0 0 0)
(5.42101e-14 -3.16626e-14 0 5.42101e-14 -9.05918e-15 0 0 0 0)
(0 -1.13143e-15 0 2.71051e-14 7.6373e-15 0 0 0 0)
(-5.42101e-14 1.17593e-14 0 0 5.03984e-15 0 0 0 0)
(0 3.0534e-15 0 0 -5.23014e-15 0 0 0 0)
(5.42101e-14 4.14118e-15 0 0 -2.09376e-15 0 0 0 0)
(2.71051e-14 3.33333e-15 0 0 4.38805e-15 0 0 0 0)
(-2.71051e-14 1.1569e-14 0 2.71051e-14 4.56552e-15 0 0 0 0)
(1.32815e-12 8.20763e-12 0 3.52366e-13 1.42168e-11 0 0 0 0)
(-1.13841e-12 -9.9546e-12 0 -2.71051e-13 -3.03386e-12 0 0 0 0)
(1.0842e-13 2.16328e-12 0 -8.13152e-14 7.19071e-13 0 0 0 0)
(-2.1684e-13 -5.10957e-13 0 5.42101e-14 -1.57186e-13 0 0 0 0)
(2.71051e-14 1.06433e-13 0 0 3.2605e-14 0 0 0 0)
(-2.71051e-14 -2.83024e-14 0 5.42101e-14 1.87579e-14 0 0 0 0)
(0 7.99386e-15 0 0 4.13066e-14 0 0 0 0)
(-2.71051e-14 3.38429e-15 0 0 2.12592e-14 0 0 0 0)
(0 -9.37955e-15 0 0 4.68308e-16 0 0 0 0)
(2.71051e-14 -1.64924e-14 0 1.0842e-13 -4.34257e-15 0 0 0 0)
(0 1.10838e-14 0 0 -1.04705e-14 0 0 0 0)
(2.71051e-14 1.40541e-14 0 -8.13152e-14 -2.45991e-14 0 0 0 0)
(2.71051e-14 -2.05799e-15 0 0 -2.60732e-14 0 0 0 0)
(-5.42101e-14 2.41339e-15 0 -2.71051e-14 1.33364e-14 0 0 0 0)
(-2.71051e-14 -1.61291e-15 0 0 3.00955e-14 0 0 0 0)
(0 -5.02312e-15 0 5.42101e-14 1.56542e-14 0 0 0 0)
(0 3.40022e-15 0 0 1.3408e-14 0 0 0 0)
(-5.42101e-14 9.44423e-15 0 -5.42101e-14 9.13981e-15 0 0 0 0)
(2.71051e-14 3.50333e-15 0 0 -1.60705e-15 0 0 0 0)
(-2.71051e-14 -4.19379e-15 0 -5.42101e-14 2.38862e-15 0 0 0 0)
(-7.04731e-13 -3.88933e-13 0 -1.0842e-12 -2.21021e-11 0 0 0 0)
(3.52366e-13 4.75217e-13 0 1.6263e-13 4.78777e-12 0 0 0 0)
(2.1684e-13 -1.09739e-13 0 -1.35525e-13 -1.12005e-12 0 0 0 0)
(1.6263e-13 2.36526e-14 0 -5.42101e-14 2.49734e-13 0 0 0 0)
(-2.71051e-14 8.69375e-15 0 -5.42101e-14 -5.28048e-14 0 0 0 0)
(0 2.00294e-14 0 -5.42101e-14 2.89029e-14 0 0 0 0)
(-8.13152e-14 -3.13435e-15 0 -2.71051e-14 1.64387e-14 0 0 0 0)
(-5.42101e-14 -2.21312e-14 0 0 -7.17484e-16 0 0 0 0)
(5.42101e-14 -1.80825e-14 0 0 -1.67819e-14 0 0 0 0)
(2.71051e-14 -9.95463e-15 0 0 1.13656e-14 0 0 0 0)
(-8.13152e-14 -5.007e-15 0 0 2.24317e-14 0 0 0 0)
(5.42101e-14 -1.71118e-15 0 0 -6.54037e-15 0 0 0 0)
(0 1.73019e-14 0 -5.42101e-14 -2.61786e-15 0 0 0 0)
(2.71051e-14 2.4506e-14 0 -8.13152e-14 -7.93311e-15 0 0 0 0)
(5.42101e-14 1.18639e-15 0 -2.71051e-14 -1.25464e-14 0 0 0 0)
(-5.42101e-14 -4.92818e-15 0 -2.71051e-14 7.78596e-16 0 0 0 0)
(-2.71051e-14 -3.46103e-15 0 -5.42101e-14 6.31168e-15 0 0 0 0)
(2.71051e-14 -1.08739e-14 0 5.42101e-14 -3.53868e-15 0 0 0 0)
(0 -3.41786e-15 0 2.71051e-14 -1.59762e-14 0 0 0 0)
(5.42101e-14 1.07874e-14 0 0 -8.40172e-15 0 0 0 0)
(4.06576e-13 -9.10673e-12 0 -7.04731e-13 1.83797e-11 0 0 0 0)
(-1.6263e-13 1.10275e-11 0 3.25261e-13 -3.96219e-12 0 0 0 0)
(-1.6263e-13 -2.37475e-12 0 5.42101e-14 9.33123e-13 0 0 0 0)
(-1.35525e-13 5.56286e-13 0 -5.42101e-14 -2.04155e-13 0 0 0 0)
(5.42101e-14 -1.14398e-13 0 -5.42101e-14 3.08992e-14 0 0 0 0)
(2.71051e-14 4.09412e-14 0 0 -3.19062e-14 0 0 0 0)
(2.71051e-14 -2.16265e-14 0 -2.71051e-14 -2.40788e-14 0 0 0 0)
(0 -2.98363e-14 0 8.13152e-14 -1.31879e-14 0 0 0 0)
(2.71051e-14 2.70353e-15 0 5.42101e-14 -3.31477e-15 0 0 0 0)
(0 2.27212e-14 0 -2.71051e-14 1.91876e-14 0 0 0 0)
(-2.71051e-14 -6.82213e-15 0 5.42101e-14 3.21229e-14 0 0 0 0)
(0 -1.09955e-14 0 8.13152e-14 1.94954e-14 0 0 0 0)
(-5.42101e-14 -3.45073e-15 0 0 1.46751e-14 0 0 0 0)
(0 -7.51515e-15 0 5.42101e-14 -1.72372e-14 0 0 0 0)
(2.71051e-14 7.09879e-15 0 0 -2.56356e-14 0 0 0 0)
(0 1.3835e-14 0 0 -1.17661e-14 0 0 0 0)
(2.71051e-14 -9.17064e-16 0 5.42101e-14 -5.65256e-16 0 0 0 0)
(0 -1.28436e-14 0 5.42101e-14 9.67216e-15 0 0 0 0)
(0 -1.3597e-15 0 2.71051e-14 7.39739e-15 0 0 0 0)
(-5.42101e-14 2.01841e-14 0 2.71051e-14 -1.89828e-15 0 0 0 0)
(-1.11131e-12 1.40286e-11 0 2.08709e-12 4.83669e-13 0 0 0 0)
(1.16552e-12 -1.69714e-11 0 -7.04731e-13 -4.52618e-14 0 0 0 0)
(-1.89735e-13 3.64829e-12 0 -1.35525e-13 2.25867e-14 0 0 0 0)
(8.13152e-14 -8.78571e-13 0 0 -1.74511e-14 0 0 0 0)
(-2.71051e-14 1.80943e-13 0 -2.71051e-14 -7.01452e-15 0 0 0 0)
(2.71051e-14 -3.49486e-14 0 -8.13152e-14 -1.39969e-14 0 0 0 0)
(5.42101e-14 1.5584e-14 0 -8.13152e-14 -6.93247e-15 0 0 0 0)
(0 -1.36721e-15 0 -8.13152e-14 8.67509e-15 0 0 0 0)
(-5.42101e-14 1.42929e-14 0 -8.13152e-14 1.17855e-14 0 0 0 0)
(5.42101e-14 2.5483e-14 0 -1.0842e-13 -2.16819e-14 0 0 0 0)
(0 -4.6992e-15 0 -5.42101e-14 -2.86499e-14 0 0 0 0)
(0 -1.91589e-14 0 2.71051e-14 -1.01293e-14 0 0 0 0)
(0 -1.94307e-14 0 2.71051e-14 -6.19256e-15 0 0 0 0)
(2.71051e-14 -1.58048e-14 0 5.42101e-14 7.57048e-15 0 0 0 0)
(0 6.65752e-15 0 5.42101e-14 1.89441e-14 0 0 0 0)
(-2.71051e-14 2.01422e-14 0 -2.71051e-14 1.20683e-14 0 0 0 0)
(0 1.79772e-14 0 -5.42101e-14 7.53796e-15 0 0 0 0)
(0 -2.91124e-15 0 -5.42101e-14 3.89463e-15 0 0 0 0)
(0 -1.49883e-14 0 -2.71051e-14 1.11225e-14 0 0 0 0)
(0 5.28828e-15 0 -2.71051e-14 2.08799e-15 0 0 0 0)
(1.76183e-12 -8.66833e-12 0 -1.81604e-12 -2.13473e-11 0 0 0 0)
(-2.33103e-12 1.05664e-11 0 5.96311e-13 4.61787e-12 0 0 0 0)
(5.69206e-13 -2.34694e-12 0 5.42101e-14 -1.07555e-12 0 0 0 0)
(-8.13152e-14 5.26685e-13 0 5.42101e-14 2.49044e-13 0 0 0 0)
(0 -1.10944e-13 0 2.71051e-14 -3.16569e-14 0 0 0 0)
(0 4.10232e-14 0 0 1.99498e-14 0 0 0 0)
(0 1.04549e-15 0 2.71051e-14 -3.62043e-15 0 0 0 0)
(0 -1.11184e-14 0 0 -1.02677e-14 0 0 0 0)
(-5.42101e-14 -2.76535e-14 0 8.13152e-14 -6.67046e-15 0 0 0 0)
(5.42101e-14 -1.77142e-14 0 2.71051e-14 -3.2282e-14 0 0 0 0)
(1.35525e-13 4.73045e-15 0 0 -4.68537e-14 0 0 0 0)
(0 1.14618e-14 0 -5.42101e-14 -2.68339e-14 0 0 0 0)
(2.71051e-14 1.42491e-14 0 -2.71051e-14 -1.93324e-14 0 0 0 0)
(-2.71051e-14 1.76215e-14 0 -5.42101e-14 1.00624e-14 0 0 0 0)
(0 1.15966e-14 0 0 2.26003e-14 0 0 0 0)
(-5.42101e-14 2.4288e-15 0 0 2.22534e-14 0 0 0 0)
(-5.42101e-14 -9.09074e-15 0 5.42101e-14 4.95481e-15 0 0 0 0)
(5.42101e-14 -9.25904e-15 0 0 -1.38335e-14 0 0 0 0)
(0 -3.16635e-15 0 0 -1.4021e-15 0 0 0 0)
(0 6.97357e-15 0 2.71051e-14 4.60842e-15 0 0 0 0)
(-2.30393e-12 -2.70086e-12 0 -3.11708e-12 2.50529e-11 0 0 0 0)
(2.98156e-12 3.30041e-12 0 7.58942e-13 -5.55119e-12 0 0 0 0)
(-7.31836e-13 -7.20534e-13 0 -5.42101e-14 1.26958e-12 0 0 0 0)
(1.0842e-13 1.65319e-13 0 8.13152e-14 -2.69568e-13 0 0 0 0)
(-1.0842e-13 -4.81512e-14 0 1.0842e-13 8.81227e-14 0 0 0 0)
(-2.71051e-14 -6.91218e-15 0 1.0842e-13 -9.63977e-15 0 0 0 0)
(8.13152e-14 -1.46336e-14 0 1.0842e-13 -1.44044e-14 0 0 0 0)
(2.71051e-14 -4.41725e-15 0 1.0842e-13 -2.03864e-14 0 0 0 0)
(0 -7.72137e-15 0 5.42101e-14 -2.05918e-15 0 0 0 0)
(-2.71051e-14 -1.47002e-14 0 8.13152e-14 1.39394e-14 0 0 0 0)
(-8.13152e-14 7.48869e-16 0 0 2.24493e-14 0 0 0 0)
(0 8.36234e-15 0 -5.42101e-14 2.10152e-14 0 0 0 0)
(2.71051e-14 1.74656e-14 0 -5.42101e-14 1.07299e-14 0 0 0 0)
(5.42101e-14 2.6128e-14 0 -5.42101e-14 -4.41461e-15 0 0 0 0)
(0 1.88485e-14 0 -1.0842e-13 -9.78049e-15 0 0 0 0)
(0 2.49669e-15 0 0 -7.07869e-15 0 0 0 0)
(2.71051e-14 -1.81097e-14 0 0 -1.54574e-14 0 0 0 0)
(0 -9.26815e-15 0 2.71051e-14 -4.54229e-16 0 0 0 0)
(0 3.45365e-15 0 -2.71051e-14 1.00484e-14 0 0 0 0)
(-2.71051e-14 2.08196e-15 0 0 7.51962e-15 0 0 0 0)
(-5.69206e-13 1.08334e-11 0 6.93889e-12 -2.44712e-12 0 0 0 0)
(6.23416e-13 -1.32169e-11 0 -1.70762e-12 4.57875e-13 0 0 0 0)
(-1.0842e-13 2.93468e-12 0 1.89735e-13 -1.41321e-13 0 0 0 0)
(1.0842e-13 -6.5477e-13 0 -1.35525e-13 1.0065e-14 0 0 0 0)
(2.71051e-14 1.48984e-13 0 -1.0842e-13 -1.73559e-14 0 0 0 0)
(5.42101e-14 -6.1504e-14 0 0 9.34482e-16 0 0 0 0)
(-2.71051e-14 -9.70119e-15 0 -5.42101e-14 9.84843e-15 0 0 0 0)
(0 1.22689e-15 0 -5.42101e-14 8.5157e-15 0 0 0 0)
(-5.42101e-14 6.67238e-15 0 -5.42101e-14 5.72774e-15 0 0 0 0)
(0 6.79428e-15 0 -2.71051e-14 1.79553e-14 0 0 0 0)
(0 1.18062e-14 0 -5.42101e-14 2.36259e-14 0 0 0 0)
(0 -2.5759e-16 0 0 2.06207e-14 0 0 0 0)
(-1.0842e-13 -1.11807e-14 0 5.42101e-14 2.4446e-14 0 0 0 0)
(-2.71051e-14 -2.88881e-15 0 -2.71051e-14 4.54709e-15 0 0 0 0)
(2.71051e-14 8.93254e-15 0 0 -1.66157e-14 0 0 0 0)
(5.42101e-14 -3.24811e-15 0 -5.42101e-14 -3.19896e-14 0 0 0 0)
(2.71051e-14 -2.46628e-15 0 0 -2.42628e-14 0 0 0 0)
(-2.71051e-14 1.62468e-14 0 -8.13152e-14 2.5184e-15 0 0 0 0)
(2.71051e-14 4.8075e-15 0 -5.42101e-14 2.37742e-15 0 0 0 0)
(-2.71051e-14 -1.05945e-14 0 -2.71051e-14 9.16237e-16 0 0 0 0)
(2.84603e-12 -4.69011e-12 0 -8.94467e-13 -2.258e-11 0 0 0 0)
(-3.68629e-12 5.60621e-12 0 2.98156e-13 4.95788e-12 0 0 0 0)
(8.94467e-13 -1.16834e-12 0 1.0842e-13 -1.14924e-12 0 0 0 0)
(-1.89735e-13 2.89284e-13 0 8.13152e-14 2.51325e-13 0 0 0 0)
(5.42101e-14 -5.72817e-14 0 8.13152e-14 -8.61957e-14 0 0 0 0)
(0 2.02921e-14 0 -2.71051e-14 2.24096e-15 0 0 0 0)
(0 -7.05233e-15 0 5.42101e-14 4.27009e-15 0 0 0 0)
(-5.42101e-14 -8.53793e-15 0 2.71051e-14 5.07615e-15 0 0 0 0)
(5.42101e-14 1.71823e-15 0 0 -2.63741e-15 0 0 0 0)
(0 3.19792e-15 0 -5.42101e-14 7.82153e-15 0 0 0 0)
(-5.42101e-14 3.41431e-15 0 0 -3.31128e-15 0 0 0 0)
(5.42101e-14 9.18244e-15 0 5.42101e-14 -1.65781e-14 0 0 0 0)
(2.71051e-14 1.39197e-15 0 0 -7.5426e-15 0 0 0 0)
(0 -1.49337e-14 0 8.13152e-14 6.70432e-15 0 0 0 0)
(0 -1.76882e-14 0 5.42101e-14 -1.41168e-15 0 0 0 0)
(5.42101e-14 -5.15038e-15 0 5.42101e-14 -1.36973e-14 0 0 0 0)
(0 1.63983e-14 0 -5.42101e-14 2.35893e-15 0 0 0 0)
(-5.42101e-14 1.7372e-14 0 5.42101e-14 4.18295e-15 0 0 0 0)
(5.42101e-14 1.85149e-15 0 5.42101e-14 -1.17461e-14 0 0 0 0)
(0 -1.21169e-15 0 2.71051e-14 -5.72087e-15 0 0 0 0)
(-1.0571e-12 -6.78874e-12 0 -2.22261e-12 1.45726e-11 0 0 0 0)
(1.5992e-12 8.21384e-12 0 4.87891e-13 -3.0937e-12 0 0 0 0)
(-4.33681e-13 -1.77188e-12 0 -1.6263e-13 7.52506e-13 0 0 0 0)
(8.13152e-14 4.08274e-13 0 -2.71051e-14 -1.53483e-13 0 0 0 0)
(-5.42101e-14 -1.00099e-13 0 -2.71051e-14 5.49472e-14 0 0 0 0)
(0 2.89618e-14 0 0 3.89768e-15 0 0 0 0)
(0 -6.866e-15 0 -5.42101e-14 5.69325e-15 0 0 0 0)
(-2.71051e-14 -5.68061e-15 0 -2.71051e-14 1.7816e-14 0 0 0 0)
(-5.42101e-14 9.41777e-15 0 0 1.99118e-14 0 0 0 0)
(0 6.12042e-15 0 5.42101e-14 6.68002e-15 0 0 0 0)
(2.71051e-14 -1.25934e-14 0 5.42101e-14 1.05934e-14 0 0 0 0)
(-2.71051e-14 -4.48891e-15 0 0 1.58591e-14 0 0 0 0)
(-2.71051e-14 1.21017e-14 0 0 5.89992e-15 0 0 0 0)
(2.71051e-14 3.24211e-15 0 0 2.36543e-15 0 0 0 0)
(0 -1.14691e-14 0 0 1.75915e-14 0 0 0 0)
(-5.42101e-14 5.22501e-16 0 0 3.15226e-14 0 0 0 0)
(0 1.5414e-14 0 5.42101e-14 2.22194e-14 0 0 0 0)
(2.71051e-14 2.14175e-15 0 0 -2.89628e-16 0 0 0 0)
(0 -5.09632e-15 0 0 2.7056e-15 0 0 0 0)
(-2.71051e-14 6.87249e-15 0 -2.71051e-14 2.9552e-15 0 0 0 0)
)
;

boundaryField
{
    movingWall
    {
        type            extrapolatedCalculated;
        value           nonuniform List<tensor> 
20
(
(-1.0571e-12 -6.78874e-12 0 6.30607e-12 3.46273e-11 0 0 0 0)
(1.5992e-12 8.21384e-12 0 -1.95399e-12 -7.47237e-12 0 0 0 0)
(-4.33681e-13 -1.77188e-12 0 -1.77636e-13 1.77196e-12 0 0 0 0)
(8.13152e-14 4.08274e-13 0 -3.10862e-13 -3.84857e-13 0 0 0 0)
(-5.42101e-14 -1.00099e-13 0 -3.55271e-13 1.38862e-13 0 0 0 0)
(0 2.89618e-14 0 -1.77636e-13 1.55392e-14 0 0 0 0)
(0 -6.866e-15 0 -3.55271e-13 2.30144e-14 0 0 0 0)
(-2.71051e-14 -5.68061e-15 0 -2.22045e-13 4.30032e-14 0 0 0 0)
(-5.42101e-14 9.41777e-15 0 -2.22045e-13 4.57369e-14 0 0 0 0)
(0 6.12042e-15 0 -4.44089e-14 5.33211e-15 0 0 0 0)
(2.71051e-14 -1.25934e-14 0 -1.33227e-13 2.12552e-14 0 0 0 0)
(-2.71051e-14 -4.48891e-15 0 -1.77636e-13 5.57057e-14 0 0 0 0)
(-2.71051e-14 1.21017e-14 0 -4.44089e-14 3.92109e-14 0 0 0 0)
(2.71051e-14 3.24211e-15 0 -4.44089e-14 7.29886e-15 0 0 0 0)
(0 -1.14691e-14 0 -8.88178e-14 2.62424e-14 0 0 0 0)
(-5.42101e-14 5.22501e-16 0 -8.88178e-14 5.31751e-14 0 0 0 0)
(0 1.5414e-14 0 8.88178e-14 2.41524e-14 0 0 0 0)
(2.71051e-14 2.14175e-15 0 0 -8.48071e-15 0 0 0 0)
(0 -5.09632e-15 0 -8.88178e-14 1.55854e-14 0 0 0 0)
(-2.71051e-14 6.87249e-15 0 -4.44089e-14 1.19046e-14 0 0 0 0)
)
;
    }
    fixedWalls
    {
        type            extrapolatedCalculated;
        value           nonuniform List<tensor> 
60
(
(-5.68434e-12 6.58459e-11 0 1.11131e-12 1.78062e-11 0 0 0 0)
(1.01696e-11 5.37878e-12 0 9.21572e-13 -3.1546e-11 0 0 0 0)
(-1.95399e-12 -6.03383e-11 0 -4.68917e-12 9.36999e-12 0 0 0 0)
(-8.61533e-12 4.28587e-11 0 2.84603e-12 1.54876e-11 0 0 0 0)
(9.32587e-12 1.61206e-12 0 9.75782e-13 -2.10053e-11 0 0 0 0)
(-4.61853e-12 -4.11625e-11 0 -2.35814e-12 1.27145e-11 0 0 0 0)
(-1.77636e-13 5.24699e-11 0 1.89735e-12 4.8412e-12 0 0 0 0)
(2.9754e-12 -2.17977e-11 0 -5.14996e-13 -1.8966e-11 0 0 0 0)
(-2.30926e-12 -2.33942e-11 0 -3.25261e-13 1.87471e-11 0 0 0 0)
(1.86517e-12 5.31906e-11 0 -2.98156e-13 -8.86921e-12 0 0 0 0)
(-3.73035e-12 -5.88711e-11 0 8.94467e-13 -2.80892e-12 0 0 0 0)
(5.59552e-12 4.1955e-11 0 3.52366e-13 1.42168e-11 0 0 0 0)
(-2.30926e-12 -2.00395e-12 0 -1.0842e-12 -2.21021e-11 0 0 0 0)
(1.19904e-12 -4.64536e-11 0 -7.04731e-13 1.83797e-11 0 0 0 0)
(-5.06262e-12 7.15149e-11 0 2.08709e-12 4.83669e-13 0 0 0 0)
(9.50351e-12 -4.45189e-11 0 -1.81604e-12 -2.13473e-11 0 0 0 0)
(-1.23457e-11 -1.38744e-11 0 -3.11708e-12 2.50529e-11 0 0 0 0)
(-2.84217e-12 5.56926e-11 0 6.93889e-12 -2.44712e-12 0 0 0 0)
(1.52323e-11 -2.36629e-11 0 -8.94467e-13 -2.258e-11 0 0 0 0)
(-6.30607e-12 -3.46273e-11 0 -2.22261e-12 1.45726e-11 0 0 0 0)
(0 -3.64275e-15 0 0 -4.22721e-15 0 0 0 0)
(8.88178e-14 2.05516e-14 0 0 -8.88802e-15 0 0 0 0)
(-4.44089e-14 3.19093e-14 0 2.71051e-14 -7.51315e-16 0 0 0 0)
(0 2.35569e-14 0 -2.71051e-14 9.94702e-16 0 0 0 0)
(0 2.79305e-14 0 0 9.56937e-16 0 0 0 0)
(-4.44089e-14 1.97291e-14 0 2.71051e-14 1.02347e-14 0 0 0 0)
(-8.88178e-14 -1.30082e-14 0 0 9.9822e-15 0 0 0 0)
(0 -2.01997e-14 0 -2.71051e-14 -7.21731e-16 0 0 0 0)
(0 -1.01213e-14 0 0 -8.0766e-15 0 0 0 0)
(-4.44089e-14 1.21067e-14 0 2.71051e-14 -8.52439e-15 0 0 0 0)
(-8.88178e-14 2.39762e-14 0 2.71051e-14 4.56552e-15 0 0 0 0)
(-8.88178e-14 -6.15536e-15 0 -5.42101e-14 2.38862e-15 0 0 0 0)
(8.88178e-14 1.44218e-14 0 0 -8.40172e-15 0 0 0 0)
(-8.88178e-14 2.74515e-14 0 2.71051e-14 -1.89828e-15 0 0 0 0)
(0 2.20149e-14 0 -2.71051e-14 2.08799e-15 0 0 0 0)
(0 1.90996e-14 0 2.71051e-14 4.60842e-15 0 0 0 0)
(-4.44089e-14 3.58119e-15 0 0 7.51962e-15 0 0 0 0)
(-4.44089e-14 -1.09789e-14 0 -2.71051e-14 9.16237e-16 0 0 0 0)
(0 -8.37612e-17 0 2.71051e-14 -5.72087e-15 0 0 0 0)
(-4.44089e-14 1.19046e-14 0 -2.71051e-14 2.9552e-15 0 0 0 0)
(-9.75782e-13 1.2949e-11 0 -5.68434e-12 6.58459e-11 0 0 0 0)
(1.43657e-12 -1.56333e-11 0 1.73195e-12 -1.40498e-11 0 0 0 0)
(-3.79471e-13 3.33496e-12 0 1.33227e-13 3.31262e-12 0 0 0 0)
(2.71051e-14 -7.83681e-13 0 2.22045e-13 -7.10006e-13 0 0 0 0)
(-2.71051e-14 1.79834e-13 0 1.77636e-13 1.77901e-13 0 0 0 0)
(0 -3.36173e-14 0 1.77636e-13 9.32885e-15 0 0 0 0)
(-2.71051e-14 -1.88691e-15 0 1.33227e-13 4.34323e-14 0 0 0 0)
(0 -7.41634e-15 0 8.88178e-14 1.78121e-15 0 0 0 0)
(-2.71051e-14 -3.3361e-15 0 4.44089e-14 1.3767e-14 0 0 0 0)
(2.71051e-14 -7.38562e-15 0 4.44089e-14 -1.15632e-14 0 0 0 0)
(0 1.38883e-15 0 1.33227e-13 -1.57755e-14 0 0 0 0)
(0 8.07604e-15 0 4.44089e-14 -6.00787e-15 0 0 0 0)
(0 6.60336e-15 0 8.88178e-14 1.65287e-14 0 0 0 0)
(0 7.40313e-15 0 1.77636e-13 2.04056e-14 0 0 0 0)
(0 5.99921e-15 0 1.33227e-13 4.61412e-14 0 0 0 0)
(-5.42101e-14 -1.03187e-14 0 0 4.44024e-14 0 0 0 0)
(0 -1.49262e-14 0 0 4.86641e-15 0 0 0 0)
(0 2.89029e-15 0 4.44089e-14 -1.53026e-14 0 0 0 0)
(0 4.73633e-15 0 -8.88178e-14 1.64276e-14 0 0 0 0)
(0 -5.01759e-15 0 0 3.64275e-15 0 0 0 0)
)
;
    }
    frontAndBack
    {
        type            empty;
    }
}


// ************************************************************************* //
