/*--------------------------------*- C++ -*----------------------------------*\
| =========                 |                                                 |
| \\      /  F ield         | OpenFOAM: The Open Source CFD Toolbox           |
|  \\    /   O peration     | Version:  2506                                  |
|   \\  /    A nd           | Website:  www.openfoam.com                      |
|    \\/     M anipulation  |                                                 |
\*---------------------------------------------------------------------------*/
FoamFile
{
    version     2.0;
    format      ascii;
    arch        "LSB;label=32;scalar=64";
    class       volScalarField;
    location    "9.25";
    object      Lambda2Field;
}
// * * * * * * * * * * * * * * * * * * * * * * * * * * * * * * * * * * * * * //

dimensions      [0 0 -2 0 0 0 0];

internalField   nonuniform List<scalar> 
400
(
1.53425e-23
8.84359e-24
0
2.19764e-26
-2.08461e-27
0
1.34439e-28
0
0
3.44559e-29
7.52885e-29
-4.0237e-28
0
2.00662e-28
0
4.12056e-28
0
0
-2.45434e-28
0
4.05842e-24
7.25902e-24
4.72452e-25
4.75223e-27
1.02933e-27
1.17725e-27
9.15022e-28
0
2.05753e-28
4.30525e-28
3.09111e-28
4.64972e-29
-2.33123e-29
-1.01139e-27
0
7.6338e-28
0
0
-4.3555e-28
7.8997e-29
5.58506e-23
2.07769e-23
0
1.16942e-25
-3.41643e-26
4.26578e-27
7.45999e-28
1.0392e-27
4.44023e-28
1.77964e-29
0
-4.68342e-28
-3.12294e-28
-3.71336e-28
-2.90983e-28
3.70387e-28
0
0
0
2.67554e-28
2.63166e-23
1.2092e-23
5.6322e-25
0
3.43704e-27
0
5.67147e-28
0
2.66065e-28
1.79927e-27
5.28999e-28
-2.35375e-28
-5.9735e-28
-1.19865e-27
-4.11845e-28
-5.0547e-29
1.16428e-27
0
1.31571e-28
-1.11946e-28
3.08161e-24
5.16592e-24
3.55587e-25
1.27923e-26
0
7.00339e-29
4.02123e-28
0
1.84985e-28
0
2.3656e-28
0
1.21365e-28
-3.48404e-29
0
5.61766e-29
2.68929e-28
0
0
0
1.95887e-23
7.91796e-24
1.05794e-25
2.67366e-26
-1.00595e-26
1.42715e-30
0
0
-3.99694e-28
-4.41673e-27
-1.43385e-27
-2.10164e-28
0
4.70202e-28
0
5.23161e-31
0
1.19067e-28
4.71653e-29
1.0821e-28
1.94901e-23
9.47246e-24
-2.40159e-25
6.70451e-26
-2.15431e-26
3.33225e-27
0
6.96656e-28
9.43493e-28
2.68917e-29
6.10076e-28
8.18364e-28
2.67205e-29
6.51981e-28
0
1.61503e-28
-2.51513e-28
0
1.58671e-29
9.96443e-29
2.36269e-24
2.10347e-24
8.88968e-26
0
0
-6.87776e-28
2.8583e-29
4.1659e-28
0
-1.54782e-27
0
-4.47409e-28
0
0
-2.00904e-28
0
7.37395e-29
0
4.26465e-29
3.75076e-28
1.56455e-24
1.88728e-24
0
2.70493e-26
0
2.14601e-27
0
-9.93024e-29
5.37865e-28
4.65125e-28
-2.35994e-28
7.34684e-28
1.26835e-27
3.04427e-28
0
0
0
1.93783e-28
0
0
0
2.61124e-24
-1.86453e-25
-6.44476e-27
1.35568e-28
2.16778e-27
0
-1.49104e-27
-2.7774e-27
0
2.65987e-28
0
9.93216e-28
-1.149e-27
6.87047e-28
0
7.84089e-29
0
0
1.29014e-28
-2.46061e-24
1.10806e-24
-7.02073e-25
-1.26356e-26
-9.06016e-27
6.1408e-28
0
1.18297e-28
0
6.05074e-28
1.56137e-27
3.7653e-28
-1.96289e-27
0
0
2.54e-29
0
4.38384e-30
1.9255e-29
3.34421e-28
4.65606e-24
3.99418e-24
0
0
7.34684e-28
-7.99591e-28
0
4.51955e-28
0
-1.05343e-27
0
-4.08127e-28
6.79811e-28
1.12445e-28
7.34684e-28
-2.72489e-29
0
0
2.58262e-30
2.33051e-28
9.18329e-25
2.01446e-25
6.18922e-26
2.51664e-26
2.63395e-28
-2.50418e-28
3.55189e-28
5.14784e-31
2.81631e-28
1.29177e-28
5.03183e-28
4.27764e-29
-9.31087e-28
-1.25803e-27
1.25255e-28
1.34185e-28
2.2746e-28
0
0
7.05889e-29
6.5831e-24
3.61325e-24
0
0
7.15629e-27
7.34684e-28
1.16598e-27
-2.25222e-27
1.57546e-28
-2.47696e-28
3.64856e-28
-5.14031e-28
2.1536e-28
-1.10275e-28
6.57186e-28
0
0
-6.02703e-28
0
5.50695e-28
2.95129e-23
1.19623e-23
-4.58436e-25
3.04542e-28
-4.16977e-27
3.03777e-27
0
1.11175e-28
0
0
2.54744e-28
-4.167e-28
-4.88322e-28
-1.22094e-28
3.60905e-28
0
-9.17727e-28
1.57819e-28
4.06259e-28
-1.38979e-28
1.88461e-23
1.17346e-23
1.96768e-25
3.51638e-26
-2.00498e-27
0
2.83381e-29
0
0
5.61984e-28
2.19527e-27
0
0
-2.20581e-28
0
4.95212e-28
0
1.91366e-28
0
1.89019e-28
1.37269e-23
1.13945e-23
5.74645e-25
2.51978e-26
2.54505e-27
-1.47356e-29
0
0
-4.14336e-28
-4.60664e-28
5.03971e-28
-1.16853e-29
-2.12129e-28
0
-1.9479e-27
0
2.38931e-28
-2.51007e-28
0
5.65447e-29
7.54956e-23
2.27791e-23
5.68567e-25
8.88392e-26
-1.54182e-26
8.73256e-31
6.22894e-28
0
0
0
-8.18354e-29
0
0
9.89775e-29
2.76081e-28
1.19941e-27
5.88682e-28
-5.86425e-28
0
2.88003e-28
1.2295e-23
1.52602e-23
6.73399e-25
5.95227e-26
0
-5.44997e-28
-3.64074e-28
0
6.95594e-30
-1.12183e-28
1.09646e-29
7.72614e-28
5.68908e-29
-1.16939e-27
-9.56884e-28
0
-8.8339e-28
9.59237e-28
2.3834e-28
-1.14635e-31
1.62062e-23
6.5649e-24
4.7624e-25
0
5.65193e-27
0
3.72207e-28
4.71384e-28
3.96479e-28
3.31789e-28
0
2.51511e-28
3.48091e-29
5.59524e-30
0
9.93677e-28
8.35592e-28
8.38844e-32
0
0
)
;

boundaryField
{
    movingWall
    {
        type            calculated;
        value           nonuniform List<scalar> 
20
(
0
0
5.02828e-25
0
3.85011e-26
-4.90319e-27
2.43929e-27
1.99603e-27
6.97388e-31
-2.4337e-28
2.12956e-27
1.53208e-27
1.9726e-28
0
1.01866e-27
2.78119e-27
1.36903e-27
7.19225e-29
4.52644e-28
0
)
;
    }
    fixedWalls
    {
        type            calculated;
        value           nonuniform List<scalar> 
60
(
1.05487e-22
1.08379e-22
2.86755e-22
1.96201e-22
8.85449e-23
1.18398e-22
9.95856e-23
2.00787e-23
1.29419e-23
0
-3.87427e-23
4.60934e-23
7.50539e-24
3.4175e-23
1.49492e-22
1.71165e-22
1.95663e-22
3.92434e-22
2.53187e-22
1.1673e-22
0
7.8997e-29
8.65469e-28
-6.37521e-28
0
6.39508e-28
9.96443e-29
5.47513e-28
0
4.00818e-28
6.70721e-28
3.39388e-28
7.05889e-29
7.47678e-28
-5.92355e-28
5.17695e-28
5.65447e-29
2.98424e-28
0
0
0
0
5.88303e-25
0
3.26796e-26
-5.8846e-27
4.83297e-28
-6.5553e-28
4.13778e-29
0
1.85029e-28
3.58648e-28
5.86496e-28
1.31506e-27
7.99255e-28
1.97157e-27
0
1.28355e-28
-1.50805e-28
0
)
;
    }
    frontAndBack
    {
        type            empty;
    }
}


// ************************************************************************* //
