/*--------------------------------*- C++ -*----------------------------------*\
| =========                 |                                                 |
| \\      /  F ield         | OpenFOAM: The Open Source CFD Toolbox           |
|  \\    /   O peration     | Version:  2506                                  |
|   \\  /    A nd           | Website:  www.openfoam.com                      |
|    \\/     M anipulation  |                                                 |
\*---------------------------------------------------------------------------*/
FoamFile
{
    version     2.0;
    format      ascii;
    arch        "LSB;label=32;scalar=64";
    class       volVectorField;
    location    "9.25";
    object      LambVectorField;
}
// * * * * * * * * * * * * * * * * * * * * * * * * * * * * * * * * * * * * * //

dimensions      [0 1 -2 0 0 0 0];

internalField   nonuniform List<vector> 
400
(
(-1.94866e-24 -1.18377e-11 0)
(-5.3388e-25 1.51996e-11 -0)
(-2.80676e-26 -3.38917e-12 0)
(-1.34293e-27 7.56576e-13 -0)
(-9.20368e-29 -2.06939e-13 0)
(7.84026e-31 3.36173e-14 0)
(3.14797e-30 2.8992e-14 0)
(3.30251e-32 7.41634e-15 0)
(1.04771e-30 3.04412e-14 0)
(-2.13503e-31 7.38562e-15 -0)
(-2.0832e-30 5.28213e-14 -0)
(9.35517e-31 -6.22861e-14 -0)
(-2.72862e-31 -6.60336e-15 0)
(1.00507e-30 1.97019e-14 0)
(-6.92026e-31 -5.99921e-15 0)
(1.14544e-30 1.03187e-14 0)
(1.81593e-31 1.49262e-14 0)
(1.10572e-31 -2.89029e-15 -0)
(-2.42087e-30 -5.89464e-14 0)
(4.56946e-32 5.01759e-15 0)
(-1.53329e-27 -1.14025e-13 0)
(-3.11219e-27 1.00686e-12 -0)
(-2.53014e-28 -3.78847e-13 0)
(2.64564e-30 -2.28731e-14 -0)
(-1.24825e-29 -1.49614e-13 0)
(-3.27769e-30 -1.29947e-13 0)
(-2.95163e-30 -1.06757e-13 0)
(-4.69465e-31 -5.46522e-14 0)
(-7.46157e-31 -2.32669e-14 0)
(1.37839e-30 -4.62683e-14 -0)
(2.49709e-30 -5.27387e-14 -0)
(1.74395e-31 -3.9185e-15 -0)
(7.39907e-31 -9.06369e-14 -0)
(-5.80772e-30 -1.19227e-13 0)
(-5.84811e-30 -5.85375e-14 0)
(-7.72508e-30 -8.39814e-14 0)
(7.14131e-31 5.64238e-15 0)
(1.44038e-30 4.05036e-14 0)
(-4.66736e-31 6.29042e-14 -0)
(3.02102e-31 -5.87988e-15 -0)
(-1.08532e-24 7.19488e-12 -0)
(-4.1218e-25 -1.28785e-11 0)
(-2.37948e-26 3.09237e-12 -0)
(-9.03458e-28 -5.56439e-13 0)
(-1.86632e-28 3.70292e-13 -0)
(-2.48142e-29 1.364e-13 -0)
(-1.74375e-29 7.2141e-14 -0)
(-3.30803e-30 3.66826e-14 -0)
(-9.11645e-31 1.37215e-14 -0)
(-7.79002e-31 -1.78442e-14 0)
(-1.06552e-31 -9.51334e-16 0)
(3.55439e-30 6.68507e-14 0)
(-1.35665e-30 9.41907e-14 -0)
(-3.21445e-30 4.25268e-14 -0)
(-1.12738e-29 6.68587e-14 -0)
(-2.71589e-30 1.34402e-14 -0)
(2.65389e-30 -8.30056e-14 -0)
(-2.44159e-30 -2.84295e-14 0)
(-8.17876e-31 4.36706e-14 -0)
(-1.37648e-30 1.72549e-14 -0)
(-5.92773e-25 -5.53235e-12 0)
(-2.20413e-25 9.43424e-12 -0)
(-1.07602e-26 -2.06332e-12 0)
(-7.29348e-28 5.30583e-13 -0)
(-1.79659e-29 -9.96995e-14 0)
(-5.39189e-30 5.0595e-14 -0)
(-2.85145e-30 5.21297e-14 -0)
(-2.35365e-30 2.74427e-14 -0)
(-1.00406e-30 1.7289e-14 -0)
(1.13813e-30 9.18249e-14 0)
(4.87311e-30 4.51724e-14 0)
(6.02534e-30 5.86286e-14 0)
(4.23228e-30 6.64478e-14 0)
(-1.91274e-30 9.75612e-14 -0)
(-6.65048e-30 6.73349e-14 -0)
(-1.37235e-29 9.09718e-14 -0)
(-1.31391e-29 6.72649e-14 -0)
(2.20019e-31 -2.1256e-14 -0)
(-3.83298e-31 -2.22509e-14 0)
(1.84166e-30 -3.12717e-14 -0)
(2.86908e-27 7.11904e-13 0)
(-1.60209e-28 1.15145e-13 -0)
(-2.03096e-29 -1.20755e-13 0)
(6.44738e-30 -3.50746e-14 -0)
(9.68264e-31 -4.17963e-14 -0)
(-1.98858e-32 5.38817e-16 -0)
(-1.23293e-31 4.31784e-15 -0)
(-2.56194e-30 3.19903e-14 -0)
(5.13605e-31 -6.63512e-15 -0)
(1.7429e-31 -1.26907e-14 -0)
(9.0969e-31 1.83775e-14 0)
(-1.27754e-31 -1.73717e-15 0)
(2.57405e-31 3.84923e-15 0)
(1.16867e-30 3.33438e-14 0)
(3.24887e-32 7.24516e-15 0)
(-3.10885e-31 8.3119e-15 -0)
(1.79161e-31 -2.27839e-15 -0)
(1.49689e-31 -1.02397e-14 -0)
(1.31184e-31 5.52077e-15 0)
(3.21651e-31 -4.60645e-15 -0)
(-5.85198e-25 5.68671e-12 -0)
(-2.04246e-25 -9.09469e-12 0)
(-1.10441e-26 2.13077e-12 -0)
(-4.89298e-28 -4.25441e-13 0)
(-8.32597e-29 2.1535e-13 -0)
(2.49987e-30 -1.31395e-14 -0)
(-2.05505e-31 8.05177e-16 -0)
(1.21254e-30 -6.11446e-15 -0)
(1.45827e-29 -7.51357e-14 -0)
(-1.84107e-30 -1.68162e-13 0)
(-2.00444e-29 -1.51526e-13 0)
(-9.97839e-30 -5.83677e-14 0)
(1.29858e-30 7.46917e-15 0)
(-9.3933e-31 -9.75768e-15 0)
(6.63515e-33 1.72169e-14 0)
(-2.40826e-31 3.17282e-15 -0)
(4.12756e-31 -1.31691e-14 -0)
(-4.42895e-31 -7.93888e-15 0)
(5.05016e-31 1.05111e-14 0)
(-1.3306e-30 2.69774e-14 -0)
(-1.09858e-24 -8.37491e-12 0)
(-3.33274e-25 1.17135e-11 -0)
(-1.7987e-26 -2.7885e-12 0)
(-8.42118e-28 5.09961e-13 -0)
(-7.94874e-29 -2.98163e-13 0)
(2.10818e-30 -8.44619e-14 -0)
(-3.84012e-30 -1.42189e-13 0)
(-4.53279e-30 -1.08771e-13 0)
(-2.38935e-30 -7.83016e-14 0)
(3.29428e-32 2.85549e-15 0)
(-5.76286e-32 -2.94046e-14 0)
(-2.16507e-30 -6.26964e-14 0)
(-9.98026e-30 -1.1495e-13 0)
(-2.04967e-30 -2.05315e-14 0)
(2.7413e-31 1.3e-14 0)
(-1.21812e-32 4.03759e-16 -0)
(-6.74674e-31 -3.95719e-14 0)
(-7.12426e-31 -7.53896e-15 0)
(5.72924e-31 6.19787e-15 0)
(4.06376e-31 1.24959e-14 0)
(-2.08805e-25 3.83169e-12 -0)
(-5.38643e-26 -4.88459e-12 0)
(-3.10679e-27 1.05753e-12 -0)
(-1.37675e-28 -3.04547e-13 0)
(-5.56441e-30 3.40618e-14 -0)
(-5.99635e-30 -5.38046e-14 0)
(2.97107e-30 2.86689e-14 0)
(3.20366e-31 3.34382e-15 0)
(6.66767e-30 9.49869e-14 0)
(-4.13333e-30 1.01037e-13 -0)
(-5.29351e-30 4.16732e-14 -0)
(-1.7019e-29 9.12107e-14 -0)
(1.47307e-30 -6.51859e-15 -0)
(9.22956e-30 -7.60231e-14 -0)
(5.6097e-31 -7.14687e-14 -0)
(-1.74276e-30 -3.4051e-14 0)
(-3.26356e-30 -5.29713e-14 0)
(-2.20488e-30 -5.68371e-14 0)
(-1.02873e-31 -1.17061e-15 0)
(-6.69982e-31 -1.32672e-14 0)
(-2.4909e-25 4.259e-12 -0)
(-6.64758e-26 -5.25792e-12 0)
(-4.20831e-27 1.31679e-12 -0)
(-1.20346e-28 -2.15192e-13 0)
(-2.46119e-29 1.06638e-13 -0)
(2.23674e-30 6.3959e-14 0)
(-7.33551e-30 1.28161e-13 -0)
(-1.86123e-29 1.14585e-13 -0)
(-5.26517e-30 4.42883e-14 -0)
(-3.17969e-30 5.03003e-14 -0)
(-7.21599e-30 9.04414e-14 -0)
(-1.57744e-30 1.02115e-14 -0)
(-8.07017e-30 4.43657e-14 -0)
(1.28462e-30 -2.29264e-14 -0)
(-4.41344e-31 -9.31847e-15 0)
(2.07958e-31 5.59742e-15 0)
(-5.27092e-31 6.12044e-14 -0)
(-1.66034e-30 5.06354e-14 -0)
(-1.57634e-31 -5.80933e-15 0)
(1.32685e-31 5.24379e-15 0)
(-1.42585e-24 -1.07226e-11 0)
(-3.57822e-25 1.24537e-11 -0)
(-1.86163e-26 -2.84567e-12 0)
(-1.0773e-27 6.60671e-13 -0)
(-2.93977e-29 -1.42494e-13 0)
(3.40484e-30 -1.65546e-14 -0)
(1.03004e-29 -6.05029e-14 -0)
(1.84069e-29 -1.28949e-13 -0)
(-4.71345e-30 -1.34515e-13 0)
(-1.35595e-29 -1.14711e-13 0)
(-7.666e-30 -7.82688e-14 0)
(-2.60511e-30 -2.96905e-14 0)
(-6.28194e-30 -5.07433e-14 0)
(4.03326e-30 7.59934e-14 0)
(-1.47747e-30 1.57119e-14 -0)
(8.16167e-31 -7.84432e-15 -0)
(1.64238e-31 -1.05338e-14 -0)
(2.24876e-34 1.73961e-16 0)
(-5.46959e-32 3.15595e-15 -0)
(-6.7632e-31 2.23453e-14 -0)
(-1.83476e-24 1.24663e-11 -0)
(-4.37871e-25 -1.39187e-11 0)
(-2.4061e-26 3.23036e-12 -0)
(-1.17588e-27 -7.37223e-13 0)
(-7.68982e-29 2.2146e-13 -0)
(-3.32291e-30 4.28823e-14 -0)
(-1.40012e-29 5.98458e-14 -0)
(2.50387e-30 -1.87071e-14 -0)
(3.52533e-31 -7.51927e-15 -0)
(5.77249e-32 -9.84174e-16 -0)
(-1.44318e-30 3.89605e-14 -0)
(1.23999e-30 1.32135e-14 0)
(1.31471e-29 1.29054e-13 0)
(-9.66014e-30 8.58728e-14 -0)
(-6.06388e-30 2.82365e-14 -0)
(1.45589e-30 -1.17593e-14 -0)
(2.96671e-31 -3.0534e-15 -0)
(3.86264e-31 -4.14118e-15 -0)
(1.8583e-31 -3.33333e-15 -0)
(-9.31243e-31 1.55361e-14 -0)
(-8.23918e-25 -7.85527e-12 0)
(-2.20892e-25 9.68355e-12 -0)
(-1.19892e-26 -2.2446e-12 0)
(-6.65906e-28 5.65168e-13 -0)
(-2.46677e-29 -1.06433e-13 0)
(-9.39978e-30 8.25125e-14 -0)
(4.09728e-31 -7.99386e-15 -0)
(1.15002e-31 -3.38429e-15 -0)
(-1.63321e-31 9.37955e-15 -0)
(-1.59609e-29 1.24913e-13 -0)
(2.02099e-30 -1.10838e-14 -0)
(1.61538e-30 -9.53693e-14 -0)
(-8.60147e-32 2.05799e-15 -0)
(1.10747e-30 -2.95184e-14 -0)
(-2.84866e-32 1.61291e-15 -0)
(-3.17769e-30 5.92332e-14 -0)
(2.3085e-31 -3.40022e-15 -0)
(1.25049e-30 -6.36543e-14 -0)
(-9.30116e-32 -3.50333e-15 0)
(-7.69671e-31 -5.00163e-14 0)
(3.48321e-27 -6.95269e-13 -0)
(-3.50267e-28 -3.12587e-13 0)
(6.6453e-30 -2.5786e-14 -0)
(-1.80272e-30 -7.78628e-14 0)
(1.33246e-30 -6.29039e-14 -0)
(-8.17303e-30 -7.42395e-14 0)
(-4.29343e-30 -2.39707e-14 0)
(1.74276e-30 2.21312e-14 0)
(-7.63099e-31 1.80825e-14 -0)
(-1.01616e-30 9.95463e-15 -0)
(-7.09728e-31 5.007e-15 -0)
(-2.60354e-31 1.71118e-15 -0)
(1.13603e-29 -7.15121e-14 -0)
(-2.20855e-30 -1.05821e-13 0)
(-2.43876e-30 -2.82914e-14 0)
(-7.25948e-31 -2.21769e-14 0)
(-1.87362e-30 -5.07491e-14 0)
(-1.22084e-31 6.5084e-14 -0)
(-2.19214e-30 3.05229e-14 -0)
(3.88933e-31 -1.07874e-14 -0)
(-9.75758e-25 8.402e-12 -0)
(-2.68269e-25 -1.07022e-11 0)
(-1.42316e-26 2.42896e-12 -0)
(-8.053e-28 -6.10496e-13 0)
(-1.78325e-29 6.0188e-14 -0)
(-7.16918e-30 -4.09412e-14 0)
(-6.19797e-31 -5.47853e-15 0)
(-4.57453e-30 1.11151e-13 -0)
(-9.54062e-30 5.15066e-14 -0)
(7.03574e-31 -4.98263e-14 -0)
(2.56219e-30 6.10322e-14 0)
(-7.60103e-30 9.23107e-14 -0)
(-2.3456e-31 3.45073e-15 -0)
(-7.21254e-30 6.17253e-14 -0)
(1.01602e-30 -7.09879e-15 -0)
(6.34487e-31 -1.3835e-14 -0)
(-2.6329e-31 5.51272e-14 -0)
(-3.69008e-30 6.70537e-14 -0)
(-3.79185e-30 2.84648e-14 -0)
(-4.74977e-31 6.92095e-15 -0)
(-2.13499e-24 -1.19415e-11 0)
(-6.26287e-25 1.62666e-11 -0)
(-3.43325e-26 -3.78382e-12 0)
(-1.77331e-27 8.78571e-13 -0)
(-5.98781e-29 -2.08048e-13 0)
(9.68932e-30 -4.63666e-14 -0)
(5.97639e-30 -9.68991e-14 -0)
(4.24782e-30 -7.9948e-14 -0)
(7.20393e-30 -9.56081e-14 -0)
(-1.20241e-29 -1.33903e-13 0)
(-8.88631e-30 -4.95109e-14 0)
(1.98034e-30 4.6264e-14 0)
(-5.63435e-31 4.65358e-14 -0)
(-1.06074e-29 7.00149e-14 -0)
(-8.09132e-30 4.75526e-14 -0)
(4.01255e-30 -4.72473e-14 -0)
(-2.25707e-30 -7.21873e-14 0)
(-4.86548e-30 -5.12989e-14 0)
(-2.61045e-32 -1.21168e-14 0)
(1.78284e-30 -3.23933e-14 -0)
(-7.62641e-25 6.85229e-12 -0)
(-2.45404e-25 -9.97009e-12 0)
(-1.35263e-26 2.40115e-12 -0)
(-5.40785e-28 -4.72475e-13 0)
(-5.05846e-29 1.38049e-13 -0)
(-1.44156e-30 -4.10232e-14 0)
(1.1416e-30 2.60596e-14 0)
(5.06942e-31 1.11184e-14 0)
(-7.3419e-30 1.08969e-13 -0)
(-1.03505e-29 4.48192e-14 -0)
(1.15668e-30 -4.73045e-15 -0)
(1.20597e-29 -6.56719e-14 -0)
(5.3719e-30 -4.13542e-14 -0)
(2.95546e-30 -7.18316e-14 -0)
(-5.37104e-31 -1.15966e-14 0)
(-1.81728e-31 -2.4288e-15 0)
(4.46927e-30 6.33009e-14 0)
(-1.48936e-31 9.25904e-15 -0)
(-6.96179e-32 3.16635e-15 -0)
(-9.61256e-31 2.01315e-14 -0)
(1.44369e-26 -4.16217e-13 -0)
(-1.95118e-26 -2.54147e-12 0)
(-1.12072e-27 6.66324e-13 -0)
(-3.96528e-29 -8.40034e-14 0)
(-4.50283e-30 1.56571e-13 -0)
(-1.09262e-30 1.15332e-13 -0)
(-1.20446e-29 1.23054e-13 -0)
(-1.75811e-29 1.12837e-13 -0)
(-8.79756e-30 6.19315e-14 -0)
(-2.23738e-29 9.60153e-14 -0)
(2.16464e-31 -7.48869e-16 -0)
(1.41122e-29 -6.25724e-14 -0)
(1.47245e-29 -7.16757e-14 -0)
(4.08744e-30 -8.03381e-14 -0)
(-7.1077e-30 -1.27269e-13 0)
(-3.43563e-31 -2.49669e-15 0)
(1.46353e-30 1.81097e-14 0)
(-1.58185e-30 3.63732e-14 -0)
(3.62629e-31 -3.05587e-14 -0)
(1.86397e-32 -2.08196e-15 -0)
(-5.42234e-25 -3.89447e-12 0)
(-3.55612e-25 1.15093e-11 -0)
(-1.93862e-26 -2.74494e-12 0)
(-8.05402e-28 5.19245e-13 -0)
(-1.32513e-28 -2.57405e-13 0)
(-3.76758e-30 6.1504e-14 -0)
(4.46144e-30 -4.45089e-14 -0)
(8.77398e-30 -5.5437e-14 -0)
(5.35572e-30 -6.08825e-14 -0)
(3.10334e-30 -3.38993e-14 -0)
(1.32199e-30 -6.60163e-14 -0)
(6.8304e-33 2.5759e-16 0)
(-1.47791e-30 6.53908e-14 -0)
(2.06541e-30 -2.42162e-14 -0)
(4.5993e-31 -8.93254e-15 -0)
(-2.05634e-31 -5.0962e-14 0)
(-2.07094e-31 2.46628e-15 -0)
(2.01248e-30 -9.75619e-14 -0)
(-4.63273e-30 -5.90176e-14 0)
(-4.53171e-31 -1.65106e-14 0)
(-2.2454e-25 3.79564e-12 -0)
(-6.50561e-26 -5.30805e-12 0)
(-3.95179e-27 1.27676e-12 -0)
(-1.19101e-28 -2.07969e-13 0)
(-2.80406e-29 1.38597e-13 -0)
(6.10834e-33 -4.73972e-14 -0)
(3.6977e-32 6.12624e-14 0)
(-2.51826e-30 3.5643e-14 -0)
(1.45664e-31 -1.71823e-15 -0)
(3.0696e-30 -5.7408e-14 -0)
(1.80263e-31 -3.41431e-15 -0)
(-8.70242e-31 4.50277e-14 -0)
(-5.43258e-32 -1.39197e-15 0)
(-5.20427e-31 9.62489e-14 -0)
(-7.93102e-30 7.18983e-14 -0)
(-1.08207e-29 5.93605e-14 -0)
(1.14253e-29 -7.06084e-14 -0)
(-6.74339e-31 3.68381e-14 -0)
(6.23462e-31 5.23586e-14 0)
(5.92961e-33 2.83167e-14 0)
(-3.95282e-25 4.56613e-12 -0)
(-1.44328e-25 -7.72595e-12 0)
(-7.1288e-27 1.60925e-12 -0)
(-4.18898e-28 -4.3538e-13 0)
(-2.53402e-29 7.29941e-14 -0)
(1.12511e-30 -2.89618e-14 -0)
(2.724e-30 -4.73441e-14 -0)
(2.3033e-30 -2.14244e-14 -0)
(1.07685e-30 -9.41777e-15 -0)
(-6.41049e-31 4.80897e-14 -0)
(-3.54981e-30 6.68035e-14 -0)
(-6.25145e-31 4.48891e-15 -0)
(1.1863e-30 -1.21017e-14 -0)
(5.91593e-32 -3.24211e-15 -0)
(-7.5244e-31 1.14691e-14 -0)
(6.94601e-32 -5.22501e-16 -0)
(-2.34255e-30 3.87961e-14 -0)
(-4.5409e-32 -2.14175e-15 0)
(-1.9857e-31 5.09632e-15 -0)
(1.01122e-30 -3.39775e-14 -0)
)
;

boundaryField
{
    movingWall
    {
        type            calculated;
        value           nonuniform List<vector> 
20
(
(0 1.30948e-11 -0)
(0 -1.01678e-11 -0)
(0 1.59424e-12 -0)
(0 -7.19137e-13 -0)
(0 -2.55172e-13 -0)
(0 -2.06598e-13 -0)
(0 -3.48405e-13 -0)
(0 -2.16364e-13 -0)
(0 -2.31462e-13 -0)
(0 -5.05293e-14 -0)
(0 -1.20633e-13 -0)
(0 -1.73147e-13 -0)
(0 -5.65106e-14 -0)
(0 -4.7651e-14 -0)
(0 -7.73488e-14 -0)
(0 -8.93403e-14 -0)
(0 7.34039e-14 -0)
(0 -2.14175e-15 -0)
(0 -8.37215e-14 -0)
(0 -5.12814e-14 -0)
)
;
    }
    fixedWalls
    {
        type            calculated;
        value           nonuniform List<vector> 
60
(
(0 -6.47346e-11 -0)
(0 -4.45721e-12 -0)
(0 5.56491e-11 -0)
(0 -4.00127e-11 -0)
(0 -6.36276e-13 -0)
(0 3.88044e-11 -0)
(0 -5.05726e-11 -0)
(0 2.12827e-11 -0)
(0 2.3069e-11 -0)
(0 -5.34888e-11 -0)
(0 5.97655e-11 -0)
(0 -4.16026e-11 -0)
(0 9.1975e-13 -0)
(0 4.57488e-11 -0)
(0 -6.94278e-11 -0)
(0 4.27029e-11 -0)
(0 1.07573e-11 -0)
(0 -4.87537e-11 -0)
(0 2.27684e-11 -0)
(0 3.24047e-11 -0)
(0 3.64275e-15 -0)
(0 -2.05516e-14 -0)
(0 -4.80428e-15 -0)
(0 -5.06619e-14 -0)
(0 -2.79305e-14 -0)
(0 7.37594e-15 -0)
(0 1.30082e-14 -0)
(0 -6.90538e-15 -0)
(0 1.01213e-14 -0)
(0 1.49983e-14 -0)
(0 3.12882e-15 -0)
(0 -4.80547e-14 -0)
(0 -1.44218e-14 -0)
(0 -3.46463e-16 -0)
(0 -4.91199e-14 -0)
(0 8.00549e-15 -0)
(0 -3.58119e-15 -0)
(0 -1.61261e-14 -0)
(0 2.71888e-14 -0)
(0 -3.90096e-14 -0)
(0 -1.86333e-11 -0)
(0 1.73653e-11 -0)
(0 -3.20173e-12 -0)
(0 1.00573e-12 -0)
(0 -2.19814e-15 -0)
(0 2.11253e-13 -0)
(0 1.35114e-13 -0)
(0 9.62342e-14 -0)
(0 4.7745e-14 -0)
(0 5.17945e-14 -0)
(0 1.31838e-13 -0)
(0 3.63329e-14 -0)
(0 8.22145e-14 -0)
(0 1.70233e-13 -0)
(0 1.27228e-13 -0)
(0 1.03187e-14 -0)
(0 1.49262e-14 -0)
(0 4.15186e-14 -0)
(0 -9.35542e-14 -0)
(0 5.01759e-15 -0)
)
;
    }
    frontAndBack
    {
        type            empty;
    }
}


// ************************************************************************* //
