/*--------------------------------*- C++ -*----------------------------------*\
| =========                 |                                                 |
| \\      /  F ield         | OpenFOAM: The Open Source CFD Toolbox           |
|  \\    /   O peration     | Version:  2506                                  |
|   \\  /    A nd           | Website:  www.openfoam.com                      |
|    \\/     M anipulation  |                                                 |
\*---------------------------------------------------------------------------*/
FoamFile
{
    version     2.0;
    format      ascii;
    arch        "LSB;label=32;scalar=64";
    class       volScalarField;
    location    "9.25";
    object      magSqrP;
}
// * * * * * * * * * * * * * * * * * * * * * * * * * * * * * * * * * * * * * //

dimensions      [0 4 -4 0 0 0 0];

internalField   nonuniform List<scalar> 
400
(
3.86028e-31
2.2018e-29
1.13795e-29
1.90742e-29
2.46433e-29
3.05454e-29
3.57544e-29
3.77202e-29
3.95123e-29
4.01926e-29
4.32265e-29
4.41458e-29
4.33967e-29
4.32175e-29
4.29423e-29
4.41982e-29
4.63863e-29
4.76574e-29
4.69856e-29
4.63256e-29
1.28628e-29
0
1.42614e-29
1.8696e-29
2.36046e-29
2.92279e-29
3.44532e-29
3.90506e-29
3.7879e-29
4.08881e-29
4.52164e-29
4.53048e-29
4.39431e-29
4.56263e-29
4.56355e-29
4.36775e-29
4.51737e-29
4.88187e-29
4.71251e-29
4.56702e-29
1.10703e-29
2.24485e-29
1.64705e-29
2.21211e-29
2.51616e-29
3.08483e-29
3.53124e-29
3.8718e-29
3.85352e-29
4.29454e-29
4.59105e-29
4.63147e-29
4.60885e-29
4.62722e-29
4.67887e-29
4.58569e-29
4.2572e-29
4.5289e-29
4.77457e-29
4.727e-29
1.23499e-29
2.75648e-29
1.95921e-29
2.42487e-29
2.71447e-29
3.21682e-29
3.80163e-29
4.10497e-29
4.1706e-29
4.56704e-29
4.5669e-29
4.65437e-29
4.58857e-29
4.59289e-29
4.58099e-29
4.67563e-29
4.64629e-29
4.62834e-29
4.72579e-29
4.84158e-29
2.3638e-29
5.91819e-30
2.50993e-29
2.81032e-29
2.96177e-29
3.33118e-29
3.78231e-29
4.16926e-29
4.24902e-29
4.74113e-29
4.69718e-29
4.70462e-29
4.75427e-29
4.60894e-29
4.63061e-29
4.68899e-29
4.93935e-29
4.74623e-29
4.68506e-29
5.07616e-29
2.12627e-29
4.3827e-29
2.90698e-29
3.24739e-29
3.20254e-29
3.61719e-29
3.84261e-29
4.26993e-29
4.60529e-29
4.83113e-29
4.67058e-29
4.69701e-29
4.70849e-29
4.71172e-29
4.73244e-29
4.91869e-29
4.92434e-29
4.82693e-29
4.66436e-29
5.32738e-29
2.97329e-29
4.13771e-29
3.21937e-29
3.48868e-29
3.5157e-29
3.79465e-29
3.96756e-29
4.22982e-29
5.0646e-29
5.02527e-29
4.59827e-29
4.59312e-29
4.7888e-29
4.74132e-29
4.78133e-29
4.96618e-29
5.09485e-29
4.94516e-29
5.01075e-29
5.47244e-29
4.24696e-29
1.02248e-29
3.76264e-29
3.709e-29
3.92833e-29
4.07576e-29
4.39564e-29
4.34259e-29
4.71396e-29
4.90309e-29
4.73362e-29
4.87496e-29
5.04155e-29
4.91531e-29
4.84397e-29
5.0838e-29
5.23331e-29
5.13328e-29
4.99961e-29
5.28585e-29
3.39851e-29
8.77166e-29
4.28024e-29
4.39987e-29
4.24867e-29
4.30631e-29
4.384e-29
4.54664e-29
4.89699e-29
4.96881e-29
4.74848e-29
4.89281e-29
5.24339e-29
5.28572e-29
5.05051e-29
5.15985e-29
4.93781e-29
4.98056e-29
5.12346e-29
5.39176e-29
4.5304e-29
2.97666e-29
4.77988e-29
4.56626e-29
4.91752e-29
4.50077e-29
4.60596e-29
4.98831e-29
5.20599e-29
5.09139e-29
4.89328e-29
5.05769e-29
5.30785e-29
5.18354e-29
4.97614e-29
5.29406e-29
5.27837e-29
5.14347e-29
5.1956e-29
5.36988e-29
4.82554e-29
3.26139e-29
5.0519e-29
4.85861e-29
4.89085e-29
4.90893e-29
5.11966e-29
5.5536e-29
5.71271e-29
5.26376e-29
4.9968e-29
5.18238e-29
5.23438e-29
5.11976e-29
5.35938e-29
5.54564e-29
5.43198e-29
5.15065e-29
5.21422e-29
5.52494e-29
4.3356e-29
1.11811e-28
5.23243e-29
5.65861e-29
4.96364e-29
5.13435e-29
5.4881e-29
5.73627e-29
5.66766e-29
5.52307e-29
5.41769e-29
5.15224e-29
5.03347e-29
5.47381e-29
5.63478e-29
5.63615e-29
5.58569e-29
5.58747e-29
5.34681e-29
5.59158e-29
5.99679e-29
8.49605e-30
5.52149e-29
5.47392e-29
5.4706e-29
5.37591e-29
5.92179e-29
5.95882e-29
5.56751e-29
5.58402e-29
5.85989e-29
5.35094e-29
5.43164e-29
5.43069e-29
5.44177e-29
5.82788e-29
5.70551e-29
5.49808e-29
5.54493e-29
5.49891e-29
4.78457e-29
1.17839e-28
5.51609e-29
6.06481e-29
5.55177e-29
5.70821e-29
5.82711e-29
6.00532e-29
5.77992e-29
5.68065e-29
5.80568e-29
5.7113e-29
5.92488e-29
5.77903e-29
5.70719e-29
5.84997e-29
5.72609e-29
5.59201e-29
5.57804e-29
5.76803e-29
6.064e-29
4.55655e-29
5.81155e-29
5.73147e-29
6.04227e-29
5.89258e-29
5.64044e-29
5.81052e-29
6.03289e-29
5.80646e-29
5.92605e-29
5.95402e-29
5.99356e-29
5.91187e-29
5.97104e-29
6.1002e-29
5.9705e-29
5.68239e-29
5.66614e-29
5.81824e-29
7.18738e-29
3.09338e-29
5.74909e-29
5.74662e-29
6.12395e-29
5.9928e-29
5.85397e-29
6.04551e-29
6.38597e-29
5.97245e-29
5.7241e-29
6.10585e-29
6.06355e-29
6.1374e-29
6.08259e-29
6.29994e-29
6.24079e-29
5.64432e-29
5.7072e-29
6.02351e-29
5.45841e-29
9.79449e-29
5.50068e-29
6.05169e-29
6.18484e-29
6.05288e-29
5.74299e-29
6.10848e-29
6.43226e-29
6.40327e-29
6.44598e-29
6.17341e-29
6.06045e-29
6.01796e-29
6.22393e-29
6.18766e-29
5.96404e-29
5.84392e-29
5.82885e-29
6.12877e-29
6.57892e-29
4.39922e-29
5.7306e-29
5.70022e-29
5.72786e-29
5.69132e-29
5.8304e-29
6.28377e-29
6.53852e-29
6.39058e-29
6.35548e-29
6.25347e-29
6.68647e-29
6.39916e-29
6.10351e-29
5.89252e-29
5.96914e-29
6.08194e-29
5.81323e-29
6.11167e-29
6.89152e-29
3.71537e-29
5.77458e-29
5.73044e-29
5.46596e-29
5.69526e-29
5.94413e-29
6.43297e-29
6.41681e-29
6.52257e-29
6.64944e-29
6.281e-29
6.51957e-29
6.36709e-29
6.09265e-29
5.87159e-29
6.17199e-29
6.20406e-29
5.73783e-29
5.97167e-29
4.33942e-29
8.1914e-29
5.64014e-29
5.64819e-29
5.5745e-29
5.61023e-29
5.56137e-29
6.38364e-29
6.7548e-29
6.57904e-29
6.46159e-29
6.59686e-29
6.61008e-29
6.27545e-29
6.28554e-29
6.49178e-29
6.45757e-29
5.85141e-29
5.74676e-29
6.06919e-29
)
;

boundaryField
{
    movingWall
    {
        type            calculated;
        value           nonuniform List<scalar> 
20
(
4.33942e-29
8.1914e-29
5.64014e-29
5.64819e-29
5.5745e-29
5.61023e-29
5.56137e-29
6.38364e-29
6.7548e-29
6.57904e-29
6.46159e-29
6.59686e-29
6.61008e-29
6.27545e-29
6.28554e-29
6.49178e-29
6.45757e-29
5.85141e-29
5.74676e-29
6.06919e-29
)
;
    }
    fixedWalls
    {
        type            calculated;
        value           nonuniform List<scalar> 
60
(
3.86028e-31
1.28628e-29
1.10703e-29
1.23499e-29
2.3638e-29
2.12627e-29
2.97329e-29
4.24696e-29
3.39851e-29
4.5304e-29
4.82554e-29
4.3356e-29
5.99679e-29
4.78457e-29
6.064e-29
7.18738e-29
5.45841e-29
6.57892e-29
6.89152e-29
4.33942e-29
4.63256e-29
4.56702e-29
4.727e-29
4.84158e-29
5.07616e-29
5.32738e-29
5.47244e-29
5.28585e-29
5.39176e-29
5.36988e-29
5.52494e-29
5.59158e-29
5.49891e-29
5.76803e-29
5.81824e-29
6.02351e-29
6.12877e-29
6.11167e-29
5.97167e-29
6.06919e-29
3.86028e-31
2.2018e-29
1.13795e-29
1.90742e-29
2.46433e-29
3.05454e-29
3.57544e-29
3.77202e-29
3.95123e-29
4.01926e-29
4.32265e-29
4.41458e-29
4.33967e-29
4.32175e-29
4.29423e-29
4.41982e-29
4.63863e-29
4.76574e-29
4.69856e-29
4.63256e-29
)
;
    }
    frontAndBack
    {
        type            empty;
    }
}


// ************************************************************************* //
