/*--------------------------------*- C++ -*----------------------------------*\
| =========                 |                                                 |
| \\      /  F ield         | OpenFOAM: The Open Source CFD Toolbox           |
|  \\    /   O peration     | Version:  2506                                  |
|   \\  /    A nd           | Website:  www.openfoam.com                      |
|    \\/     M anipulation  |                                                 |
\*---------------------------------------------------------------------------*/
FoamFile
{
    version     2.0;
    format      ascii;
    arch        "LSB;label=32;scalar=64";
    class       volScalarField;
    location    "9.25";
    object      pNear;
}
// * * * * * * * * * * * * * * * * * * * * * * * * * * * * * * * * * * * * * //

dimensions      [0 2 -2 0 0 0 0];

internalField   nonuniform List<scalar> 
400
(
6.21312e-16
4.69234e-15
3.37335e-15
4.36741e-15
4.9642e-15
5.52678e-15
5.97949e-15
6.14168e-15
6.28588e-15
6.33977e-15
6.57469e-15
6.64423e-15
6.58761e-15
6.574e-15
6.55304e-15
6.64818e-15
6.81075e-15
6.90344e-15
6.85461e-15
6.80629e-15
3.58647e-15
0
3.77642e-15
4.32389e-15
4.85845e-15
5.40629e-15
5.86968e-15
6.24905e-15
6.15459e-15
6.39438e-15
6.72432e-15
6.73088e-15
6.62896e-15
6.75473e-15
6.7554e-15
6.6089e-15
6.72114e-15
6.98704e-15
6.86477e-15
6.75798e-15
3.32721e-15
4.73798e-15
4.05839e-15
4.70331e-15
5.01614e-15
5.55412e-15
5.94242e-15
6.22238e-15
6.20767e-15
6.55327e-15
6.77573e-15
6.80549e-15
6.78885e-15
6.80236e-15
6.84023e-15
6.77177e-15
6.52472e-15
6.72971e-15
6.90982e-15
6.87532e-15
3.51424e-15
5.25022e-15
4.4263e-15
4.9243e-15
5.21006e-15
5.6717e-15
6.16574e-15
6.407e-15
6.45802e-15
6.75799e-15
6.75789e-15
6.8223e-15
6.7739e-15
6.77708e-15
6.7683e-15
6.83786e-15
6.81637e-15
6.80319e-15
6.87444e-15
6.95815e-15
4.86189e-15
2.43273e-15
5.00992e-15
5.30124e-15
5.44222e-15
5.77163e-15
6.15005e-15
6.45698e-15
6.51845e-15
6.88559e-15
6.8536e-15
6.85902e-15
6.89512e-15
6.78892e-15
6.80486e-15
6.84762e-15
7.02805e-15
6.88929e-15
6.84475e-15
7.12472e-15
4.61115e-15
6.6202e-15
5.39164e-15
5.69859e-15
5.6591e-15
6.01431e-15
6.19888e-15
6.53447e-15
6.78623e-15
6.95063e-15
6.83416e-15
6.85347e-15
6.86185e-15
6.86419e-15
6.87928e-15
7.01334e-15
7.01737e-15
6.94761e-15
6.82961e-15
7.29889e-15
5.45279e-15
6.4325e-15
5.67395e-15
5.9065e-15
5.92934e-15
6.16008e-15
6.29886e-15
6.5037e-15
7.1166e-15
7.08891e-15
6.78105e-15
6.77726e-15
6.92012e-15
6.88573e-15
6.91472e-15
7.04711e-15
7.13782e-15
7.03218e-15
7.07867e-15
7.39759e-15
6.51687e-15
3.19763e-15
6.13403e-15
6.09016e-15
6.26764e-15
6.38417e-15
6.62996e-15
6.58983e-15
6.86582e-15
7.00221e-15
6.88013e-15
6.98209e-15
7.10039e-15
7.01093e-15
6.95986e-15
7.13008e-15
7.23416e-15
7.16469e-15
7.07079e-15
7.27038e-15
5.82967e-15
9.36571e-15
6.54236e-15
6.63315e-15
6.51818e-15
6.56225e-15
6.62118e-15
6.74287e-15
6.99785e-15
7.04898e-15
6.89092e-15
6.99486e-15
7.24112e-15
7.2703e-15
7.1067e-15
7.18321e-15
7.02695e-15
7.05731e-15
7.15784e-15
7.34286e-15
6.73083e-15
5.45587e-15
6.91367e-15
6.75741e-15
7.0125e-15
6.70878e-15
6.78672e-15
7.0628e-15
7.21525e-15
7.1354e-15
6.9952e-15
7.11175e-15
7.2855e-15
7.19968e-15
7.05418e-15
7.27603e-15
7.26524e-15
7.1718e-15
7.20805e-15
7.32795e-15
6.94661e-15
5.71086e-15
7.10767e-15
6.97037e-15
6.99346e-15
7.00638e-15
7.15518e-15
7.45225e-15
7.55824e-15
7.25517e-15
7.0688e-15
7.19888e-15
7.2349e-15
7.15525e-15
7.32078e-15
7.4469e-15
7.3702e-15
7.17681e-15
7.22095e-15
7.43299e-15
6.58453e-15
1.05741e-14
7.23356e-15
7.52237e-15
7.04531e-15
7.16544e-15
7.40817e-15
7.57382e-15
7.52839e-15
7.43173e-15
7.3605e-15
7.17791e-15
7.0947e-15
7.39852e-15
7.50651e-15
7.50743e-15
7.47375e-15
7.47494e-15
7.31219e-15
7.47769e-15
7.74389e-15
2.9148e-15
7.43067e-15
7.39859e-15
7.39635e-15
7.33206e-15
7.69532e-15
7.71934e-15
7.46157e-15
7.47263e-15
7.65499e-15
7.31501e-15
7.36996e-15
7.36932e-15
7.37684e-15
7.63405e-15
7.55348e-15
7.41491e-15
7.44643e-15
7.41547e-15
6.91706e-15
1.08554e-14
7.42704e-15
7.78769e-15
7.45102e-15
7.55527e-15
7.63355e-15
7.7494e-15
7.60258e-15
7.53701e-15
7.6195e-15
7.55732e-15
7.69733e-15
7.60199e-15
7.55459e-15
7.64851e-15
7.5671e-15
7.47797e-15
7.46863e-15
7.59475e-15
7.78717e-15
6.75022e-15
7.62335e-15
7.57065e-15
7.7732e-15
7.67631e-15
7.51029e-15
7.62268e-15
7.76716e-15
7.62001e-15
7.69809e-15
7.71623e-15
7.74181e-15
7.68887e-15
7.72725e-15
7.81038e-15
7.7269e-15
7.53816e-15
7.52738e-15
7.62774e-15
8.47784e-15
5.56181e-15
7.58227e-15
7.58065e-15
7.82557e-15
7.74132e-15
7.65112e-15
7.77529e-15
7.99123e-15
7.72816e-15
7.56578e-15
7.81399e-15
7.78688e-15
7.83415e-15
7.7991e-15
7.93721e-15
7.89987e-15
7.51287e-15
7.5546e-15
7.76113e-15
7.38811e-15
9.89671e-15
7.41666e-15
7.77926e-15
7.86437e-15
7.78002e-15
7.57825e-15
7.81568e-15
8.02014e-15
8.00204e-15
8.02869e-15
7.8571e-15
7.78489e-15
7.75755e-15
7.88919e-15
7.86617e-15
7.72272e-15
7.64455e-15
7.63469e-15
7.82864e-15
8.11105e-15
6.63266e-15
7.57007e-15
7.54998e-15
7.56826e-15
7.54408e-15
7.6357e-15
7.92702e-15
8.08611e-15
7.99411e-15
7.97213e-15
7.90789e-15
8.17708e-15
7.99948e-15
7.8125e-15
7.67628e-15
7.72602e-15
7.79868e-15
7.62446e-15
7.81772e-15
8.30152e-15
6.09538e-15
7.59906e-15
7.56997e-15
7.39322e-15
7.5467e-15
7.70982e-15
8.02058e-15
8.0105e-15
8.07625e-15
8.15441e-15
7.92527e-15
8.07438e-15
7.9794e-15
7.80554e-15
7.66263e-15
7.8562e-15
7.87658e-15
7.57485e-15
7.72766e-15
6.58742e-15
9.05063e-15
7.51008e-15
7.51545e-15
7.46626e-15
7.49015e-15
7.45746e-15
7.98977e-15
8.21876e-15
8.11113e-15
8.0384e-15
8.12211e-15
8.13024e-15
7.92177e-15
7.92814e-15
8.05716e-15
8.0359e-15
7.64945e-15
7.58074e-15
7.7905e-15
)
;

boundaryField
{
    movingWall
    {
        type            zeroGradient;
    }
    fixedWalls
    {
        type            calculated;
        value           nonuniform List<scalar> 
60
(
1.06609e-15
3.10281e-15
3.39415e-15
3.68833e-15
4.62213e-15
4.77501e-15
5.48615e-15
6.25418e-15
6.06793e-15
6.62802e-15
6.85993e-15
6.81274e-15
7.44596e-15
7.1716e-15
7.76025e-15
8.21078e-15
7.66001e-15
8.03118e-15
8.01583e-15
6.84454e-15
6.79904e-15
6.78283e-15
6.87014e-15
6.97071e-15
7.12586e-15
7.28757e-15
7.36371e-15
7.30034e-15
7.32975e-15
7.34594e-15
7.42394e-15
7.46165e-15
7.45169e-15
7.57281e-15
7.6428e-15
7.75125e-15
7.81688e-15
7.80585e-15
7.75059e-15
7.78107e-15
1.23197e-15
3.88383e-15
3.7203e-15
4.30782e-15
4.95907e-15
5.5103e-15
5.93592e-15
6.13898e-15
6.27233e-15
6.36692e-15
6.54988e-15
6.62531e-15
6.59406e-15
6.5729e-15
6.57045e-15
6.65829e-15
6.80027e-15
6.88221e-15
6.85468e-15
6.81354e-15
)
;
    }
    frontAndBack
    {
        type            empty;
    }
}


// ************************************************************************* //
