/*--------------------------------*- C++ -*----------------------------------*\
| =========                 |                                                 |
| \\      /  F ield         | OpenFOAM: The Open Source CFD Toolbox           |
|  \\    /   O peration     | Version:  2506                                  |
|   \\  /    A nd           | Website:  www.openfoam.com                      |
|    \\/     M anipulation  |                                                 |
\*---------------------------------------------------------------------------*/
FoamFile
{
    version     2.0;
    format      ascii;
    arch        "LSB;label=32;scalar=64";
    class       volScalarField;
    location    "9.25";
    object      QField;
}
// * * * * * * * * * * * * * * * * * * * * * * * * * * * * * * * * * * * * * //

dimensions      [0 0 -2 0 0 0 0];

internalField   nonuniform List<scalar> 
400
(
-3.17653e-23
-1.22698e-23
-1.58816e-25
-2.63664e-26
3.44276e-27
0
-3.18105e-28
0
-8.9788e-29
-1.59104e-28
-7.52885e-29
4.37803e-28
0
-2.00662e-28
0
-1.10042e-27
0
0
2.56757e-28
0
-5.65331e-23
-1.79961e-23
-1.1017e-24
-4.75223e-27
-3.23387e-27
-1.86863e-27
-1.12981e-27
2.39676e-29
-6.50778e-28
-4.30525e-28
-9.00731e-28
-1.84826e-28
6.06953e-28
1.17167e-27
2.3459e-28
-1.4804e-27
0
-3.0979e-28
4.71307e-28
-4.81821e-28
-5.90281e-23
-2.14987e-23
7.84236e-26
-1.16942e-25
3.4258e-26
-4.26578e-27
-7.45999e-28
-1.20592e-27
-8.51437e-28
-2.2869e-28
0
6.85247e-28
8.5221e-28
4.18008e-28
6.85683e-28
-3.70387e-28
-1.05652e-27
-2.12996e-28
3.82208e-28
-2.46625e-28
-4.81931e-23
-1.47062e-23
-7.02935e-25
-5.94975e-27
-3.43704e-27
2.43633e-28
-1.26832e-27
-1.82112e-29
-2.66065e-28
-1.79927e-27
-6.59346e-28
2.39525e-28
6.63406e-28
1.32105e-27
7.11499e-28
3.38892e-28
-1.01602e-27
0
-1.31571e-28
1.12936e-28
-3.55572e-23
-1.04131e-23
-6.20051e-25
-2.84103e-26
3.98207e-28
-4.53664e-28
-5.43538e-28
-1.7263e-28
-3.68654e-28
0
-2.3656e-28
0
-2.98605e-28
1.69102e-28
0
-2.03155e-28
-4.44498e-28
0
0
0
-2.8965e-23
-9.70261e-24
-2.04336e-25
-2.99797e-26
1.16845e-26
-3.23806e-29
0
0
8.41856e-28
4.42312e-27
2.03967e-27
2.25381e-28
0
-4.70202e-28
0
-1.9605e-29
0
-2.95765e-28
1.86149e-28
-2.80873e-28
-1.94901e-23
-9.5588e-24
2.84489e-25
-6.70451e-26
2.20415e-26
-3.41533e-27
9.03045e-28
-7.59175e-28
-2.39405e-27
2.81118e-28
-1.34338e-27
-2.44737e-27
-3.75801e-28
-7.68174e-28
0
-3.44461e-28
3.37915e-28
0
1.07969e-28
-5.41136e-28
-8.92151e-24
-4.85049e-24
-2.87609e-25
1.95037e-26
0
7.23694e-28
4.99076e-28
-1.10646e-27
3.01827e-28
1.6037e-27
1.73297e-28
8.04655e-28
0
3.37552e-28
1.00681e-27
5.79284e-30
7.19557e-29
1.42408e-28
-3.54015e-28
-3.75076e-28
-6.57249e-24
-3.9773e-24
-2.03022e-25
-1.28203e-26
4.84609e-27
-2.27088e-27
6.55552e-28
6.68381e-28
-5.37865e-28
-6.43231e-28
7.42104e-28
-7.4358e-28
-1.48174e-27
-9.4585e-28
0
0
-3.93505e-29
-1.93783e-28
0
0
2.23303e-25
-3.26593e-24
2.86608e-25
1.71729e-26
1.26238e-27
-2.65096e-27
-1.37862e-28
2.30321e-27
2.82924e-27
6.69648e-28
-3.63575e-28
7.00774e-29
-1.72628e-27
1.18088e-27
-2.1314e-27
0
2.40012e-28
0
0
-1.29014e-28
1.25586e-23
-2.76004e-25
7.48048e-25
2.29262e-26
9.06665e-27
-6.1408e-28
-1.70158e-29
-5.89613e-28
0
-1.33347e-27
-1.58638e-27
-3.7653e-28
2.2371e-27
1.22534e-27
3.06674e-29
-2.7321e-28
0
-1.13503e-28
1.18938e-28
-4.37326e-28
1.59899e-23
7.55581e-25
2.53869e-25
6.17833e-26
8.83761e-28
1.02584e-27
0
-5.76233e-28
0
1.6704e-27
0
4.7605e-28
-7.06715e-28
-6.57554e-28
-8.15739e-28
2.72304e-28
0
1.65027e-29
-4.35592e-29
-2.92089e-28
1.51544e-23
1.60976e-24
-2.57744e-25
4.18965e-26
1.90257e-27
1.0858e-27
-1.42168e-27
3.88949e-29
-9.09747e-28
3.08065e-28
-1.82404e-27
-3.54554e-28
9.3794e-28
1.77768e-27
-6.47985e-28
-1.75786e-28
-3.58701e-28
4.93558e-28
9.26414e-29
-4.55458e-28
1.05494e-24
-2.94243e-24
-2.30185e-26
5.78245e-26
-4.52648e-27
-8.6482e-28
-1.23884e-27
2.42614e-27
-2.36405e-28
6.1586e-28
-5.00865e-28
8.94102e-28
-7.95541e-28
4.07397e-28
-6.94856e-28
0
3.43928e-29
6.96254e-28
3.68548e-29
-4.44185e-28
-2.98164e-23
-1.2013e-23
4.9015e-25
-1.41904e-27
5.09459e-27
-3.22124e-27
8.91404e-28
-1.11175e-28
5.23341e-28
1.5875e-27
-2.54744e-28
5.19304e-28
5.2667e-28
1.06198e-27
-3.60905e-28
2.18843e-28
9.74548e-28
-1.57819e-28
-4.06259e-28
1.43339e-28
-5.33523e-23
-1.70653e-23
-4.8498e-25
-4.88027e-26
3.00714e-27
0
-2.83381e-29
0
2.61025e-27
-1.26987e-27
-6.34986e-27
6.21347e-28
-1.37783e-28
6.82524e-28
0
-1.20636e-27
2.24209e-28
-7.49917e-28
0
-1.89019e-28
-6.61389e-23
-1.9056e-23
-9.68184e-25
-4.26695e-26
-4.33372e-27
1.01071e-27
4.15275e-28
-7.36568e-29
4.18576e-28
8.17519e-28
-1.82547e-27
4.53323e-28
1.23765e-27
1.17708e-27
2.04356e-27
0
-4.18973e-28
2.51214e-28
9.36115e-29
-2.0382e-28
-7.37787e-23
-2.2284e-23
-5.4149e-25
-8.76467e-26
1.56825e-26
5.06583e-29
-7.92845e-28
6.65098e-29
5.12088e-29
1.84159e-28
6.40016e-28
0
-2.04433e-27
-2.01551e-28
-4.50369e-28
-1.91024e-27
-6.57644e-28
1.25285e-27
3.25055e-28
-3.11998e-28
-6.84585e-23
-1.99477e-23
-9.01285e-25
-7.12084e-26
-1.48062e-29
5.50019e-28
3.82308e-28
-4.37573e-29
-1.42974e-28
1.7336e-28
1.79505e-28
-1.39648e-27
-2.04443e-28
1.21434e-27
9.58877e-28
-4.63329e-28
8.88954e-28
-1.1685e-27
-7.37126e-28
3.2843e-29
-3.04934e-23
-8.95491e-24
-6.14508e-25
-1.41421e-27
-5.69189e-27
0
-3.72207e-28
-6.36877e-28
-1.07942e-27
-3.31789e-28
9.69825e-28
-4.29862e-28
-1.59918e-28
6.4115e-29
0
-1.70885e-27
-8.35592e-28
-7.85039e-30
0
1.06178e-28
)
;

boundaryField
{
    movingWall
    {
        type            calculated;
        value           nonuniform List<scalar> 
20
(
6.2058e-24
4.09999e-24
-1.08321e-24
9.56224e-26
-4.30901e-26
5.14465e-27
-2.43929e-27
-2.42695e-27
-3.88236e-28
2.71801e-28
-1.10165e-27
-2.3073e-27
-5.25389e-28
3.41815e-28
-1.01866e-27
-2.83622e-27
-1.36903e-27
-2.2987e-28
-4.52644e-28
-1.7474e-29
)
;
    }
    fixedWalls
    {
        type            calculated;
        value           nonuniform List<scalar> 
60
(
-1.74391e-22
-3.25769e-22
-3.01246e-22
-2.55408e-22
-1.97466e-22
-1.55789e-22
-1.00414e-22
-6.76572e-23
-5.09012e-23
-6.8354e-25
6.31365e-23
6.47669e-23
4.8867e-23
-1.06993e-23
-1.51707e-22
-2.83723e-22
-3.52543e-22
-3.7949e-22
-3.6511e-22
-1.68859e-22
0
-7.89415e-28
-8.31539e-28
6.3851e-28
0
-9.89271e-28
-8.86597e-28
-5.47513e-28
0
5.04057e-29
-1.05538e-27
-5.45835e-28
-7.46223e-28
-5.75474e-28
5.96714e-28
-5.17695e-28
-3.33938e-28
-3.38273e-28
2.27035e-30
1.91437e-28
9.35538e-24
6.89254e-24
-1.70135e-24
1.54767e-25
-3.67669e-26
5.97163e-27
-9.25849e-28
6.58703e-28
-2.25003e-28
1.45667e-29
-1.85029e-28
-3.58648e-28
-5.86496e-28
-1.31506e-27
-7.99255e-28
-2.40706e-27
0
-1.28355e-28
4.2067e-28
0
)
;
    }
    frontAndBack
    {
        type            empty;
    }
}


// ************************************************************************* //
