/*--------------------------------*- C++ -*----------------------------------*\
| =========                 |                                                 |
| \\      /  F ield         | OpenFOAM: The Open Source CFD Toolbox           |
|  \\    /   O peration     | Version:  2506                                  |
|   \\  /    A nd           | Website:  www.openfoam.com                      |
|    \\/     M anipulation  |                                                 |
\*---------------------------------------------------------------------------*/
FoamFile
{
    version     2.0;
    format      ascii;
    arch        "LSB;label=32;scalar=64";
    class       volVectorField;
    location    "9.25";
    object      UNear;
}
// * * * * * * * * * * * * * * * * * * * * * * * * * * * * * * * * * * * * * //

dimensions      [0 1 -1 0 0 0 0];

internalField   nonuniform List<vector> 
400
(
(-1 1.64615e-13 0)
(-1 -3.51246e-14 0)
(-1 8.28156e-15 0)
(-1 -1.77502e-15 0)
(-1 4.44754e-16 0)
(-1 2.33221e-17 0)
(-1 1.08581e-16 0)
(-1 4.45302e-18 0)
(-1 3.44175e-17 0)
(-1 -2.89079e-17 0)
(-1 -3.94387e-17 0)
(-1 -1.50197e-17 0)
(-1 4.13217e-17 0)
(-1 5.10139e-17 0)
(-1 1.15353e-16 0)
(-1 1.11006e-16 0)
(-1 1.2166e-17 0)
(-1 -3.82564e-17 0)
(-1 4.1069e-17 0)
(-1 9.10688e-18 0)
(-1 1.3447e-14 0)
(-1 -3.09099e-15 0)
(-1 6.67852e-16 0)
(-1 -1.15666e-16 0)
(-1 8.34311e-17 0)
(-1 2.52233e-17 0)
(-1 2.76482e-17 0)
(-1 8.59004e-18 0)
(-1 3.20694e-17 0)
(-1 -2.97912e-17 0)
(-1 -4.73484e-17 0)
(-1 -4.45056e-17 0)
(-1 -8.16342e-18 0)
(-1 4.87115e-17 0)
(-1 9.99037e-17 0)
(-1 9.19857e-17 0)
(-1 1.26566e-16 0)
(-1 3.55619e-17 0)
(-1 -7.41979e-18 0)
(-1 -5.1379e-17 0)
(-1 -1.50846e-13 0)
(-1 3.20052e-14 0)
(-1 -7.6947e-15 0)
(-1 1.62364e-15 0)
(-1 -5.04013e-16 0)
(-1 -1.81921e-16 0)
(-1 -2.41714e-16 0)
(-1 -9.01798e-17 0)
(-1 -6.64392e-17 0)
(-1 4.36558e-17 0)
(-1 1.12002e-16 0)
(-1 5.31692e-17 0)
(-1 -1.44032e-17 0)
(-1 -7.55863e-17 0)
(-1 -1.68621e-16 0)
(-1 -2.02073e-16 0)
(-1 -3.19724e-17 0)
(-1 8.58825e-17 0)
(-1 -1.87283e-17 0)
(-1 -7.97733e-17 0)
(-1 1.07147e-13 0)
(-1 -2.3363e-14 0)
(-1 5.21498e-15 0)
(-1 -1.37462e-15 0)
(-1 1.802e-16 0)
(-1 -1.0657e-16 0)
(-1 -5.46992e-17 0)
(-1 -8.5766e-17 0)
(-1 -5.80753e-17 0)
(-1 1.23946e-17 0)
(-1 1.07878e-16 0)
(-1 1.02771e-16 0)
(-1 6.36933e-17 0)
(-1 -1.96055e-17 0)
(-1 -9.87671e-17 0)
(-1 -1.50854e-16 0)
(-1 -1.95333e-16 0)
(-1 -1.03509e-17 0)
(-1 1.72262e-17 0)
(-1 -5.88922e-17 0)
(-1 4.03015e-15 0)
(-1 -1.39137e-15 0)
(-1 1.68189e-16 0)
(-1 -1.83819e-16 0)
(-1 -2.31663e-17 0)
(-1 -3.69065e-17 0)
(-1 -2.85544e-17 0)
(-1 -8.00849e-17 0)
(-1 -7.7407e-17 0)
(-1 -1.37337e-17 0)
(-1 4.95001e-17 0)
(-1 7.35414e-17 0)
(-1 6.68718e-17 0)
(-1 3.50492e-17 0)
(-1 4.48419e-18 0)
(-1 -3.74024e-17 0)
(-1 -7.86348e-17 0)
(-1 -1.46186e-17 0)
(-1 2.37619e-17 0)
(-1 -6.98263e-17 0)
(-1 -1.02906e-13 0)
(-1 2.24578e-14 0)
(-1 -5.18314e-15 0)
(-1 1.1501e-15 0)
(-1 -3.86625e-16 0)
(-1 -1.90256e-16 0)
(-1 -2.55229e-16 0)
(-1 -1.98308e-16 0)
(-1 -1.94085e-16 0)
(-1 1.09482e-17 0)
(-1 1.32284e-16 0)
(-1 1.70957e-16 0)
(-1 1.73859e-16 0)
(-1 9.62658e-17 0)
(-1 3.85387e-19 0)
(-1 -7.59029e-17 0)
(-1 -3.13428e-17 0)
(-1 5.5788e-17 0)
(-1 4.8046e-17 0)
(-1 -4.93228e-17 0)
(-1 1.31175e-13 0)
(-1 -2.84522e-14 0)
(-1 6.4504e-15 0)
(-1 -1.65134e-15 0)
(-1 2.6659e-16 0)
(-1 -2.49602e-17 0)
(-1 2.70072e-17 0)
(-1 4.16728e-17 0)
(-1 3.05147e-17 0)
(-1 1.15367e-17 0)
(-1 1.95985e-18 0)
(-1 3.45326e-17 0)
(-1 8.68226e-17 0)
(-1 9.98307e-17 0)
(-1 2.10869e-17 0)
(-1 -3.01695e-17 0)
(-1 1.70493e-17 0)
(-1 9.44993e-17 0)
(-1 9.24389e-17 0)
(-1 3.25206e-17 0)
(-1 -5.44942e-14 0)
(-1 1.10274e-14 0)
(-1 -2.93778e-15 0)
(-1 4.52065e-16 0)
(-1 -1.63362e-16 0)
(-1 1.11447e-16 0)
(-1 1.03634e-16 0)
(-1 9.58084e-17 0)
(-1 7.01957e-17 0)
(-1 -4.0909e-17 0)
(-1 -1.27024e-16 0)
(-1 -1.86591e-16 0)
(-1 -2.25979e-16 0)
(-1 -1.21405e-16 0)
(-1 -7.84917e-18 0)
(-1 5.11809e-17 0)
(-1 6.16099e-17 0)
(-1 3.8793e-17 0)
(-1 8.78796e-17 0)
(-1 5.04992e-17 0)
(-1 -5.84856e-14 0)
(-1 1.2643e-14 0)
(-1 -3.19587e-15 0)
(-1 5.59247e-16 0)
(-1 -2.30799e-16 0)
(-1 3.49715e-17 0)
(-1 -5.72369e-17 0)
(-1 -1.62433e-16 0)
(-1 -1.18884e-16 0)
(-1 -6.32142e-17 0)
(-1 -7.97864e-17 0)
(-1 -1.54477e-16 0)
(-1 -1.81901e-16 0)
(-1 -5.60322e-17 0)
(-1 4.73622e-17 0)
(-1 3.71525e-17 0)
(-1 -8.61201e-18 0)
(-1 -3.279e-17 0)
(-1 2.71346e-17 0)
(-1 2.53033e-17 0)
(-1 1.32977e-13 0)
(-1 -2.87321e-14 0)
(-1 6.54197e-15 0)
(-1 -1.63061e-15 0)
(-1 2.06309e-16 0)
(-1 -2.05673e-16 0)
(-1 -1.70247e-16 0)
(-1 -1.42745e-16 0)
(-1 3.50402e-17 0)
(-1 1.18206e-16 0)
(-1 9.79446e-17 0)
(-1 8.77422e-17 0)
(-1 1.23799e-16 0)
(-1 5.30738e-17 0)
(-1 -9.40347e-17 0)
(-1 -1.04046e-16 0)
(-1 -1.55915e-17 0)
(-1 1.29268e-18 0)
(-1 -1.73311e-17 0)
(-1 -3.02668e-17 0)
(-1 -1.47178e-13 0)
(-1 3.14591e-14 0)
(-1 -7.44842e-15 0)
(-1 1.59501e-15 0)
(-1 -3.47233e-16 0)
(-1 -7.74891e-17 0)
(-1 -2.33955e-16 0)
(-1 -1.33846e-16 0)
(-1 -4.6884e-17 0)
(-1 -5.86532e-17 0)
(-1 -3.70422e-17 0)
(-1 9.38427e-17 0)
(-1 1.01873e-16 0)
(-1 -1.12494e-16 0)
(-1 -2.14754e-16 0)
(-1 -1.23808e-16 0)
(-1 -9.71608e-17 0)
(-1 -9.32739e-17 0)
(-1 -5.5749e-17 0)
(-1 -5.99406e-17 0)
(-1 1.04887e-13 0)
(-1 -2.28111e-14 0)
(-1 5.34134e-15 0)
(-1 -1.17825e-15 0)
(-1 2.31768e-16 0)
(-1 -1.1392e-16 0)
(-1 -5.12553e-17 0)
(-1 -3.3981e-17 0)
(-1 -1.74124e-17 0)
(-1 -1.27777e-16 0)
(-1 -1.82336e-16 0)
(-1 -1.69381e-17 0)
(-1 -4.17955e-17 0)
(-1 -3.7518e-17 0)
(-1 -1.76617e-17 0)
(-1 -5.36471e-17 0)
(-1 -6.78929e-17 0)
(-1 -1.96449e-17 0)
(-1 2.65494e-17 0)
(-1 1.53884e-17 0)
(-1 -5.00988e-15 0)
(-1 1.12054e-15 0)
(-1 -2.57709e-16 0)
(-1 2.31525e-17 0)
(-1 -2.11825e-17 0)
(-1 1.1009e-16 0)
(-1 1.79111e-16 0)
(-1 7.87465e-17 0)
(-1 -4.22009e-17 0)
(-1 -1.02079e-16 0)
(-1 -1.41747e-16 0)
(-1 -1.52149e-16 0)
(-1 -1.58859e-16 0)
(-1 2.08706e-17 0)
(-1 8.62012e-17 0)
(-1 3.27345e-17 0)
(-1 3.69193e-17 0)
(-1 -1.87579e-18 0)
(-1 -7.18195e-17 0)
(-1 -3.60544e-17 0)
(-1 -1.16134e-13 0)
(-1 2.50666e-14 0)
(-1 -5.85914e-15 0)
(-1 1.31909e-15 0)
(-1 -2.9628e-16 0)
(-1 1.75109e-16 0)
(-1 1.13132e-16 0)
(-1 -4.11558e-17 0)
(-1 -1.85231e-16 0)
(-1 -1.41206e-17 0)
(-1 4.1981e-17 0)
(-1 -8.23418e-17 0)
(-1 -6.79742e-17 0)
(-1 -1.16849e-16 0)
(-1 -1.43126e-16 0)
(-1 -4.58611e-17 0)
(-1 -4.77605e-18 0)
(-1 -5.50318e-17 0)
(-1 -1.33212e-16 0)
(-1 -6.86288e-17 0)
(-1 1.78787e-13 0)
(-1 -3.85013e-14 0)
(-1 9.07352e-15 0)
(-1 -2.0184e-15 0)
(-1 2.8781e-16 0)
(-1 -2.08972e-16 0)
(-1 -6.16764e-17 0)
(-1 -5.31323e-17 0)
(-1 -7.53485e-17 0)
(-1 8.97972e-17 0)
(-1 1.79482e-16 0)
(-1 4.28052e-17 0)
(-1 -1.21076e-17 0)
(-1 -1.51502e-16 0)
(-1 -1.70155e-16 0)
(-1 -8.49266e-17 0)
(-1 3.12668e-17 0)
(-1 9.48458e-17 0)
(-1 2.15441e-18 0)
(-1 -5.50372e-17 0)
(-1 -1.11297e-13 0)
(-1 2.4614e-14 0)
(-1 -5.63327e-15 0)
(-1 1.14458e-15 0)
(-1 -3.66425e-16 0)
(-1 3.51402e-17 0)
(-1 4.38073e-17 0)
(-1 4.55951e-17 0)
(-1 -6.73763e-17 0)
(-1 -2.3094e-16 0)
(-1 -2.44518e-16 0)
(-1 -1.83635e-16 0)
(-1 -1.299e-16 0)
(-1 -4.11442e-17 0)
(-1 4.63156e-17 0)
(-1 7.4822e-17 0)
(-1 7.06036e-17 0)
(-1 -1.60854e-17 0)
(-1 -2.19868e-17 0)
(-1 -4.77489e-17 0)
(-1 -3.4686e-14 0)
(-1 7.67738e-15 0)
(-1 -1.68194e-15 0)
(-1 4.72038e-16 0)
(-1 -2.87589e-17 0)
(-1 -9.47369e-18 0)
(-1 -9.78807e-17 0)
(-1 -1.55809e-16 0)
(-1 -1.42053e-16 0)
(-1 -2.33023e-16 0)
(-1 -2.89055e-16 0)
(-1 -2.25534e-16 0)
(-1 -2.05432e-16 0)
(-1 -5.0878e-17 0)
(-1 5.5848e-17 0)
(-1 1.37607e-16 0)
(-1 8.08149e-17 0)
(-1 -4.34895e-17 0)
(-1 -1.18666e-17 0)
(-1 -8.95297e-18 0)
(-1 1.39232e-13 0)
(-1 -3.08979e-14 0)
(-1 7.06251e-15 0)
(-1 -1.5511e-15 0)
(-1 5.14803e-16 0)
(-1 -6.12576e-17 0)
(-1 -1.00237e-16 0)
(-1 -1.58269e-16 0)
(-1 -8.79681e-17 0)
(-1 -9.15456e-17 0)
(-1 -2.00252e-17 0)
(-1 2.65166e-17 0)
(-1 -2.26011e-17 0)
(-1 -8.52903e-17 0)
(-1 -5.14893e-17 0)
(-1 4.03505e-18 0)
(-1 -8.39703e-17 0)
(-1 -2.06277e-17 0)
(-1 7.84974e-17 0)
(-1 2.74473e-17 0)
(-1 -5.91572e-14 0)
(-1 1.22561e-14 0)
(-1 -3.09516e-15 0)
(-1 5.72688e-16 0)
(-1 -2.02318e-16 0)
(-1 -1.28876e-19 0)
(-1 6.03583e-19 0)
(-1 -7.06522e-17 0)
(-1 -8.47757e-17 0)
(-1 -5.34699e-17 0)
(-1 -5.27965e-17 0)
(-1 -1.93268e-17 0)
(-1 3.90279e-17 0)
(-1 -5.4071e-18 0)
(-1 -1.10309e-16 0)
(-1 -1.82289e-16 0)
(-1 -1.61813e-16 0)
(-1 -1.83055e-17 0)
(-1 1.19075e-17 0)
(-1 2.09403e-19 0)
(-1 -8.65683e-14 0)
(-1 1.86809e-14 0)
(-1 -4.4299e-15 0)
(-1 9.62144e-16 0)
(-1 -3.47154e-16 0)
(-1 -3.8848e-17 0)
(-1 -5.75361e-17 0)
(-1 -1.07508e-16 0)
(-1 -1.14342e-16 0)
(-1 -1.33303e-17 0)
(-1 -5.3138e-17 0)
(-1 -1.39264e-16 0)
(-1 -9.80271e-17 0)
(-1 -1.82472e-17 0)
(-1 -6.5606e-17 0)
(-1 -1.32938e-16 0)
(-1 -6.0381e-17 0)
(-1 2.12018e-17 0)
(-1 -3.89635e-17 0)
(-1 -2.97614e-17 0)
)
;

boundaryField
{
    movingWall
    {
        type            fixedValue;
        value           uniform (-1 -0 -0);
    }
    fixedWalls
    {
        type            calculated;
        value           nonuniform List<vector> 
60
(
(-1 6.58459e-14 0)
(-1 5.37878e-15 0)
(-1 -6.03383e-14 0)
(-1 4.28587e-14 0)
(-1 1.61206e-15 0)
(-1 -4.11625e-14 0)
(-1 5.24699e-14 0)
(-1 -2.17977e-14 0)
(-1 -2.33942e-14 0)
(-1 5.31906e-14 0)
(-1 -5.88711e-14 0)
(-1 4.1955e-14 0)
(-1 -2.00395e-15 0)
(-1 -4.64536e-14 0)
(-1 7.15149e-14 0)
(-1 -4.45189e-14 0)
(-1 -1.38744e-14 0)
(-1 5.56926e-14 0)
(-1 -2.36629e-14 0)
(-1 -3.46273e-14 0)
(-1 3.64275e-18 0)
(-1 -2.05516e-17 0)
(-1 -3.19093e-17 0)
(-1 -2.35569e-17 0)
(-1 -2.79305e-17 0)
(-1 -1.97291e-17 0)
(-1 1.30082e-17 0)
(-1 2.01997e-17 0)
(-1 1.01213e-17 0)
(-1 -1.21067e-17 0)
(-1 -2.39762e-17 0)
(-1 6.15536e-18 0)
(-1 -1.44218e-17 0)
(-1 -2.74515e-17 0)
(-1 -2.20149e-17 0)
(-1 -1.90996e-17 0)
(-1 -3.58119e-18 0)
(-1 1.09789e-17 0)
(-1 8.37612e-20 0)
(-1 -1.19046e-17 0)
(-1 6.58459e-14 0)
(-1 -1.40498e-14 0)
(-1 3.31262e-15 0)
(-1 -7.10006e-16 0)
(-1 1.77901e-16 0)
(-1 9.32885e-18 0)
(-1 4.34323e-17 0)
(-1 1.78121e-18 0)
(-1 1.3767e-17 0)
(-1 -1.15632e-17 0)
(-1 -1.57755e-17 0)
(-1 -6.00787e-18 0)
(-1 1.65287e-17 0)
(-1 2.04056e-17 0)
(-1 4.61412e-17 0)
(-1 4.44024e-17 0)
(-1 4.86641e-18 0)
(-1 -1.53026e-17 0)
(-1 1.64276e-17 0)
(-1 3.64275e-18 0)
)
;
    }
    frontAndBack
    {
        type            empty;
    }
}


// ************************************************************************* //
