/*--------------------------------*- C++ -*----------------------------------*\
| =========                 |                                                 |
| \\      /  F ield         | OpenFOAM: The Open Source CFD Toolbox           |
|  \\    /   O peration     | Version:  2506                                  |
|   \\  /    A nd           | Website:  www.openfoam.com                      |
|    \\/     M anipulation  |                                                 |
\*---------------------------------------------------------------------------*/
FoamFile
{
    version     2.0;
    format      ascii;
    arch        "LSB;label=32;scalar=64";
    class       volVectorField;
    location    "9.25";
    object      vorticityField;
}
// * * * * * * * * * * * * * * * * * * * * * * * * * * * * * * * * * * * * * //

dimensions      [0 0 -1 0 0 0 0];

internalField   nonuniform List<vector> 
400
(
(0 -0 1.18377e-11)
(0 -0 -1.51996e-11)
(0 -0 3.38917e-12)
(0 -0 -7.56576e-13)
(0 -0 2.06939e-13)
(0 -0 -3.36173e-14)
(0 -0 -2.8992e-14)
(0 -0 -7.41634e-15)
(0 -0 -3.04412e-14)
(0 -0 -7.38562e-15)
(0 -0 -5.28213e-14)
(0 -0 6.22861e-14)
(0 -0 6.60336e-15)
(0 -0 -1.97019e-14)
(0 -0 5.99921e-15)
(0 -0 -1.03187e-14)
(0 -0 -1.49262e-14)
(0 -0 2.89029e-15)
(0 -0 5.89464e-14)
(0 -0 -5.01759e-15)
(0 -0 1.14025e-13)
(0 -0 -1.00686e-12)
(0 -0 3.78847e-13)
(0 -0 2.28731e-14)
(0 -0 1.49614e-13)
(0 -0 1.29947e-13)
(0 -0 1.06757e-13)
(0 -0 5.46522e-14)
(0 -0 2.32669e-14)
(0 -0 4.62683e-14)
(0 -0 5.27387e-14)
(0 -0 3.9185e-15)
(0 -0 9.06369e-14)
(0 -0 1.19227e-13)
(0 -0 5.85375e-14)
(0 -0 8.39814e-14)
(0 -0 -5.64238e-15)
(0 -0 -4.05036e-14)
(0 -0 -6.29042e-14)
(0 -0 5.87988e-15)
(0 -0 -7.19488e-12)
(0 -0 1.28785e-11)
(0 -0 -3.09237e-12)
(0 -0 5.56439e-13)
(0 -0 -3.70292e-13)
(0 -0 -1.364e-13)
(0 -0 -7.2141e-14)
(0 -0 -3.66826e-14)
(0 -0 -1.37215e-14)
(0 -0 1.78442e-14)
(0 -0 9.51334e-16)
(0 -0 -6.68507e-14)
(0 -0 -9.41907e-14)
(0 -0 -4.25268e-14)
(0 -0 -6.68587e-14)
(0 -0 -1.34402e-14)
(0 -0 8.30056e-14)
(0 -0 2.84295e-14)
(0 -0 -4.36706e-14)
(0 -0 -1.72549e-14)
(0 -0 5.53235e-12)
(0 -0 -9.43424e-12)
(0 -0 2.06332e-12)
(0 -0 -5.30583e-13)
(0 -0 9.96995e-14)
(0 -0 -5.0595e-14)
(0 -0 -5.21297e-14)
(0 -0 -2.74427e-14)
(0 -0 -1.7289e-14)
(0 -0 -9.18249e-14)
(0 -0 -4.51724e-14)
(0 -0 -5.86286e-14)
(0 -0 -6.64478e-14)
(0 -0 -9.75612e-14)
(0 -0 -6.73349e-14)
(0 -0 -9.09718e-14)
(0 -0 -6.72649e-14)
(0 -0 2.1256e-14)
(0 -0 2.22509e-14)
(0 -0 3.12717e-14)
(0 -0 -7.11904e-13)
(0 -0 -1.15145e-13)
(0 -0 1.20755e-13)
(0 -0 3.50746e-14)
(0 -0 4.17963e-14)
(0 -0 -5.38817e-16)
(0 -0 -4.31784e-15)
(0 -0 -3.19903e-14)
(0 -0 6.63512e-15)
(0 -0 1.26907e-14)
(0 -0 -1.83775e-14)
(0 -0 1.73717e-15)
(0 -0 -3.84923e-15)
(0 -0 -3.33438e-14)
(0 -0 -7.24516e-15)
(0 -0 -8.3119e-15)
(0 -0 2.27839e-15)
(0 -0 1.02397e-14)
(0 -0 -5.52077e-15)
(0 -0 4.60645e-15)
(0 -0 -5.68671e-12)
(0 -0 9.09469e-12)
(0 -0 -2.13077e-12)
(0 -0 4.25441e-13)
(0 -0 -2.1535e-13)
(0 -0 1.31395e-14)
(0 -0 -8.05177e-16)
(0 -0 6.11446e-15)
(0 -0 7.51357e-14)
(0 -0 1.68162e-13)
(0 -0 1.51526e-13)
(0 -0 5.83677e-14)
(0 -0 -7.46917e-15)
(0 -0 9.75768e-15)
(0 -0 -1.72169e-14)
(0 -0 -3.17282e-15)
(0 -0 1.31691e-14)
(0 -0 7.93888e-15)
(0 -0 -1.05111e-14)
(0 -0 -2.69774e-14)
(0 -0 8.37491e-12)
(0 -0 -1.17135e-11)
(0 -0 2.7885e-12)
(0 -0 -5.09961e-13)
(0 -0 2.98163e-13)
(0 -0 8.44619e-14)
(0 -0 1.42189e-13)
(0 -0 1.08771e-13)
(0 -0 7.83016e-14)
(0 -0 -2.85549e-15)
(0 -0 2.94046e-14)
(0 -0 6.26964e-14)
(0 -0 1.1495e-13)
(0 -0 2.05315e-14)
(0 -0 -1.3e-14)
(0 -0 -4.03759e-16)
(0 -0 3.95719e-14)
(0 -0 7.53896e-15)
(0 -0 -6.19787e-15)
(0 -0 -1.24959e-14)
(0 -0 -3.83169e-12)
(0 -0 4.88459e-12)
(0 -0 -1.05753e-12)
(0 -0 3.04547e-13)
(0 -0 -3.40618e-14)
(0 -0 5.38046e-14)
(0 -0 -2.86689e-14)
(0 -0 -3.34382e-15)
(0 -0 -9.49869e-14)
(0 -0 -1.01037e-13)
(0 -0 -4.16732e-14)
(0 -0 -9.12107e-14)
(0 -0 6.51859e-15)
(0 -0 7.60231e-14)
(0 -0 7.14687e-14)
(0 -0 3.4051e-14)
(0 -0 5.29713e-14)
(0 -0 5.68371e-14)
(0 -0 1.17061e-15)
(0 -0 1.32672e-14)
(0 -0 -4.259e-12)
(0 -0 5.25792e-12)
(0 -0 -1.31679e-12)
(0 -0 2.15192e-13)
(0 -0 -1.06638e-13)
(0 -0 -6.3959e-14)
(0 -0 -1.28161e-13)
(0 -0 -1.14585e-13)
(0 -0 -4.42883e-14)
(0 -0 -5.03003e-14)
(0 -0 -9.04414e-14)
(0 -0 -1.02115e-14)
(0 -0 -4.43657e-14)
(0 -0 2.29264e-14)
(0 -0 9.31847e-15)
(0 -0 -5.59742e-15)
(0 -0 -6.12044e-14)
(0 -0 -5.06354e-14)
(0 -0 5.80933e-15)
(0 -0 -5.24379e-15)
(0 -0 1.07226e-11)
(0 -0 -1.24537e-11)
(0 -0 2.84567e-12)
(0 -0 -6.60671e-13)
(0 -0 1.42494e-13)
(0 -0 1.65546e-14)
(0 -0 6.05029e-14)
(0 -0 1.28949e-13)
(0 -0 1.34515e-13)
(0 -0 1.14711e-13)
(0 -0 7.82688e-14)
(0 -0 2.96905e-14)
(0 -0 5.07433e-14)
(0 -0 -7.59934e-14)
(0 -0 -1.57119e-14)
(0 -0 7.84432e-15)
(0 -0 1.05338e-14)
(0 -0 -1.73961e-16)
(0 -0 -3.15595e-15)
(0 -0 -2.23453e-14)
(0 -0 -1.24663e-11)
(0 -0 1.39187e-11)
(0 -0 -3.23036e-12)
(0 -0 7.37223e-13)
(0 -0 -2.2146e-13)
(0 -0 -4.28823e-14)
(0 -0 -5.98458e-14)
(0 -0 1.87071e-14)
(0 -0 7.51927e-15)
(0 -0 9.84174e-16)
(0 -0 -3.89605e-14)
(0 -0 -1.32135e-14)
(0 -0 -1.29054e-13)
(0 -0 -8.58728e-14)
(0 -0 -2.82365e-14)
(0 -0 1.17593e-14)
(0 -0 3.0534e-15)
(0 -0 4.14118e-15)
(0 -0 3.33333e-15)
(0 -0 -1.55361e-14)
(0 -0 7.85527e-12)
(0 -0 -9.68355e-12)
(0 -0 2.2446e-12)
(0 -0 -5.65168e-13)
(0 -0 1.06433e-13)
(0 -0 -8.25125e-14)
(0 -0 7.99386e-15)
(0 -0 3.38429e-15)
(0 -0 -9.37955e-15)
(0 -0 -1.24913e-13)
(0 -0 1.10838e-14)
(0 -0 9.53693e-14)
(0 -0 -2.05799e-15)
(0 -0 2.95184e-14)
(0 -0 -1.61291e-15)
(0 -0 -5.92332e-14)
(0 -0 3.40022e-15)
(0 -0 6.36543e-14)
(0 -0 3.50333e-15)
(0 -0 5.00163e-14)
(0 -0 6.95269e-13)
(0 -0 3.12587e-13)
(0 -0 2.5786e-14)
(0 -0 7.78628e-14)
(0 -0 6.29039e-14)
(0 -0 7.42395e-14)
(0 -0 2.39707e-14)
(0 -0 -2.21312e-14)
(0 -0 -1.80825e-14)
(0 -0 -9.95463e-15)
(0 -0 -5.007e-15)
(0 -0 -1.71118e-15)
(0 -0 7.15121e-14)
(0 -0 1.05821e-13)
(0 -0 2.82914e-14)
(0 -0 2.21769e-14)
(0 -0 5.07491e-14)
(0 -0 -6.5084e-14)
(0 -0 -3.05229e-14)
(0 -0 1.07874e-14)
(0 -0 -8.402e-12)
(0 -0 1.07022e-11)
(0 -0 -2.42896e-12)
(0 -0 6.10496e-13)
(0 -0 -6.0188e-14)
(0 -0 4.09412e-14)
(0 -0 5.47853e-15)
(0 -0 -1.11151e-13)
(0 -0 -5.15066e-14)
(0 -0 4.98263e-14)
(0 -0 -6.10322e-14)
(0 -0 -9.23107e-14)
(0 -0 -3.45073e-15)
(0 -0 -6.17253e-14)
(0 -0 7.09879e-15)
(0 -0 1.3835e-14)
(0 -0 -5.51272e-14)
(0 -0 -6.70537e-14)
(0 -0 -2.84648e-14)
(0 -0 -6.92095e-15)
(0 -0 1.19415e-11)
(0 -0 -1.62666e-11)
(0 -0 3.78382e-12)
(0 -0 -8.78571e-13)
(0 -0 2.08048e-13)
(0 -0 4.63666e-14)
(0 -0 9.68991e-14)
(0 -0 7.9948e-14)
(0 -0 9.56081e-14)
(0 -0 1.33903e-13)
(0 -0 4.95109e-14)
(0 -0 -4.6264e-14)
(0 -0 -4.65358e-14)
(0 -0 -7.00149e-14)
(0 -0 -4.75526e-14)
(0 -0 4.72473e-14)
(0 -0 7.21873e-14)
(0 -0 5.12989e-14)
(0 -0 1.21168e-14)
(0 -0 3.23933e-14)
(0 -0 -6.85229e-12)
(0 -0 9.97009e-12)
(0 -0 -2.40115e-12)
(0 -0 4.72475e-13)
(0 -0 -1.38049e-13)
(0 -0 4.10232e-14)
(0 -0 -2.60596e-14)
(0 -0 -1.11184e-14)
(0 -0 -1.08969e-13)
(0 -0 -4.48192e-14)
(0 -0 4.73045e-15)
(0 -0 6.56719e-14)
(0 -0 4.13542e-14)
(0 -0 7.18316e-14)
(0 -0 1.15966e-14)
(0 -0 2.4288e-15)
(0 -0 -6.33009e-14)
(0 -0 -9.25904e-15)
(0 -0 -3.16635e-15)
(0 -0 -2.01315e-14)
(0 -0 4.16217e-13)
(0 -0 2.54147e-12)
(0 -0 -6.66324e-13)
(0 -0 8.40034e-14)
(0 -0 -1.56571e-13)
(0 -0 -1.15332e-13)
(0 -0 -1.23054e-13)
(0 -0 -1.12837e-13)
(0 -0 -6.19315e-14)
(0 -0 -9.60153e-14)
(0 -0 7.48869e-16)
(0 -0 6.25724e-14)
(0 -0 7.16757e-14)
(0 -0 8.03381e-14)
(0 -0 1.27269e-13)
(0 -0 2.49669e-15)
(0 -0 -1.81097e-14)
(0 -0 -3.63732e-14)
(0 -0 3.05587e-14)
(0 -0 2.08196e-15)
(0 -0 3.89447e-12)
(0 -0 -1.15093e-11)
(0 -0 2.74494e-12)
(0 -0 -5.19245e-13)
(0 -0 2.57405e-13)
(0 -0 -6.1504e-14)
(0 -0 4.45089e-14)
(0 -0 5.5437e-14)
(0 -0 6.08825e-14)
(0 -0 3.38993e-14)
(0 -0 6.60163e-14)
(0 -0 -2.5759e-16)
(0 -0 -6.53908e-14)
(0 -0 2.42162e-14)
(0 -0 8.93254e-15)
(0 -0 5.0962e-14)
(0 -0 -2.46628e-15)
(0 -0 9.75619e-14)
(0 -0 5.90176e-14)
(0 -0 1.65106e-14)
(0 -0 -3.79564e-12)
(0 -0 5.30805e-12)
(0 -0 -1.27676e-12)
(0 -0 2.07969e-13)
(0 -0 -1.38597e-13)
(0 -0 4.73972e-14)
(0 -0 -6.12624e-14)
(0 -0 -3.5643e-14)
(0 -0 1.71823e-15)
(0 -0 5.7408e-14)
(0 -0 3.41431e-15)
(0 -0 -4.50277e-14)
(0 -0 1.39197e-15)
(0 -0 -9.62489e-14)
(0 -0 -7.18983e-14)
(0 -0 -5.93605e-14)
(0 -0 7.06084e-14)
(0 -0 -3.68381e-14)
(0 -0 -5.23586e-14)
(0 -0 -2.83167e-14)
(0 -0 -4.56613e-12)
(0 -0 7.72595e-12)
(0 -0 -1.60925e-12)
(0 -0 4.3538e-13)
(0 -0 -7.29941e-14)
(0 -0 2.89618e-14)
(0 -0 4.73441e-14)
(0 -0 2.14244e-14)
(0 -0 9.41777e-15)
(0 -0 -4.80897e-14)
(0 -0 -6.68035e-14)
(0 -0 -4.48891e-15)
(0 -0 1.21017e-14)
(0 -0 3.24211e-15)
(0 -0 -1.14691e-14)
(0 -0 5.22501e-16)
(0 -0 -3.87961e-14)
(0 -0 2.14175e-15)
(0 -0 -5.09632e-15)
(0 -0 3.39775e-14)
)
;

boundaryField
{
    movingWall
    {
        type            calculated;
        value           nonuniform List<vector> 
20
(
(0 -0 -1.30948e-11)
(0 -0 1.01678e-11)
(0 -0 -1.59424e-12)
(0 -0 7.19137e-13)
(0 -0 2.55172e-13)
(0 -0 2.06598e-13)
(0 -0 3.48405e-13)
(0 -0 2.16364e-13)
(0 -0 2.31462e-13)
(0 -0 5.05293e-14)
(0 -0 1.20633e-13)
(0 -0 1.73147e-13)
(0 -0 5.65106e-14)
(0 -0 4.7651e-14)
(0 -0 7.73488e-14)
(0 -0 8.93403e-14)
(0 -0 -7.34039e-14)
(0 -0 2.14175e-15)
(0 -0 8.37215e-14)
(0 -0 5.12814e-14)
)
;
    }
    fixedWalls
    {
        type            calculated;
        value           nonuniform List<vector> 
60
(
(0 -0 6.47346e-11)
(0 -0 4.45721e-12)
(0 -0 -5.56491e-11)
(0 -0 4.00127e-11)
(0 -0 6.36276e-13)
(0 -0 -3.88044e-11)
(0 -0 5.05726e-11)
(0 -0 -2.12827e-11)
(0 -0 -2.3069e-11)
(0 -0 5.34888e-11)
(0 -0 -5.97655e-11)
(0 -0 4.16026e-11)
(0 -0 -9.1975e-13)
(0 -0 -4.57488e-11)
(0 -0 6.94278e-11)
(0 -0 -4.27029e-11)
(0 -0 -1.07573e-11)
(0 -0 4.87537e-11)
(0 -0 -2.27684e-11)
(0 -0 -3.24047e-11)
(0 -0 -3.64275e-15)
(0 -0 2.05516e-14)
(0 -0 4.80428e-15)
(0 -0 5.06619e-14)
(0 -0 2.79305e-14)
(0 -0 -7.37594e-15)
(0 -0 -1.30082e-14)
(0 -0 6.90538e-15)
(0 -0 -1.01213e-14)
(0 -0 -1.49983e-14)
(0 -0 -3.12882e-15)
(0 -0 4.80547e-14)
(0 -0 1.44218e-14)
(0 -0 3.46463e-16)
(0 -0 4.91199e-14)
(0 -0 -8.00549e-15)
(0 -0 3.58119e-15)
(0 -0 1.61261e-14)
(0 -0 -2.71888e-14)
(0 -0 3.90096e-14)
(0 -0 1.86333e-11)
(0 -0 -1.73653e-11)
(0 -0 3.20173e-12)
(0 -0 -1.00573e-12)
(0 -0 2.19814e-15)
(0 -0 -2.11253e-13)
(0 -0 -1.35114e-13)
(0 -0 -9.62342e-14)
(0 -0 -4.7745e-14)
(0 -0 -5.17945e-14)
(0 -0 -1.31838e-13)
(0 -0 -3.63329e-14)
(0 -0 -8.22145e-14)
(0 -0 -1.70233e-13)
(0 -0 -1.27228e-13)
(0 -0 -1.03187e-14)
(0 -0 -1.49262e-14)
(0 -0 -4.15186e-14)
(0 -0 9.35542e-14)
(0 -0 -5.01759e-15)
)
;
    }
    frontAndBack
    {
        type            empty;
    }
}


// ************************************************************************* //
