/*--------------------------------*- C++ -*----------------------------------*\
| =========                 |                                                 |
| \\      /  F ield         | OpenFOAM: The Open Source CFD Toolbox           |
|  \\    /   O peration     | Version:  2506                                  |
|   \\  /    A nd           | Website:  www.openfoam.com                      |
|    \\/     M anipulation  |                                                 |
\*---------------------------------------------------------------------------*/
FoamFile
{
    version     2.0;
    format      ascii;
    arch        "LSB;label=32;scalar=64";
    class       volScalarField;
    location    "9.25";
    object      zeroGradient(epsilon);
}
// * * * * * * * * * * * * * * * * * * * * * * * * * * * * * * * * * * * * * //

dimensions      [0 2 -3 0 0 0 0];

internalField   nonuniform List<scalar> 
400
(
7.78443e-07
7.78443e-07
7.78442e-07
7.78442e-07
7.78442e-07
7.78441e-07
7.78441e-07
7.78441e-07
7.78441e-07
7.78441e-07
7.78441e-07
7.78441e-07
7.78441e-07
7.78441e-07
7.78441e-07
7.78441e-07
7.78441e-07
7.78441e-07
7.78441e-07
7.78441e-07
7.94846e-07
7.86792e-07
7.87478e-07
7.87763e-07
7.88332e-07
7.88622e-07
7.89194e-07
7.89488e-07
7.90063e-07
7.90364e-07
7.90939e-07
7.9125e-07
7.91823e-07
7.92144e-07
7.92713e-07
7.93047e-07
7.93613e-07
7.93958e-07
7.9424e-07
7.94696e-07
8.21605e-07
8.1304e-07
8.13782e-07
8.14089e-07
8.14702e-07
8.15011e-07
8.15627e-07
8.15939e-07
8.16556e-07
8.16873e-07
8.17489e-07
8.17813e-07
8.18425e-07
8.18759e-07
8.19365e-07
8.19711e-07
8.2031e-07
8.20667e-07
8.20965e-07
8.21442e-07
8.5098e-07
8.42006e-07
8.42783e-07
8.43105e-07
8.43748e-07
8.44071e-07
8.44716e-07
8.45043e-07
8.4569e-07
8.46021e-07
8.46666e-07
8.47006e-07
8.47647e-07
8.47997e-07
8.48632e-07
8.48994e-07
8.49622e-07
8.49996e-07
8.50308e-07
8.50808e-07
8.76922e-07
8.67579e-07
8.68387e-07
8.68722e-07
8.69391e-07
8.69728e-07
8.704e-07
8.70739e-07
8.71413e-07
8.71758e-07
8.72429e-07
8.72783e-07
8.7345e-07
8.73815e-07
8.74475e-07
8.74853e-07
8.75506e-07
8.75896e-07
8.7622e-07
8.76741e-07
8.96752e-07
8.87123e-07
8.87956e-07
8.88302e-07
8.88991e-07
8.89338e-07
8.9003e-07
8.9038e-07
8.91074e-07
8.9143e-07
8.92122e-07
8.92486e-07
8.93174e-07
8.9355e-07
8.9423e-07
8.94619e-07
8.95293e-07
8.95695e-07
8.96029e-07
8.96565e-07
9.10518e-07
9.00687e-07
9.01538e-07
9.0189e-07
9.02594e-07
9.02948e-07
9.03654e-07
9.04012e-07
9.0472e-07
9.05083e-07
9.05789e-07
9.06161e-07
9.06863e-07
9.07247e-07
9.07942e-07
9.08339e-07
9.09026e-07
9.09437e-07
9.09777e-07
9.10325e-07
9.19577e-07
9.09613e-07
9.10474e-07
9.10832e-07
9.11545e-07
9.11904e-07
9.12619e-07
9.12982e-07
9.13699e-07
9.14067e-07
9.14783e-07
9.1516e-07
9.15871e-07
9.1626e-07
9.16965e-07
9.17367e-07
9.18064e-07
9.1848e-07
9.18825e-07
9.19381e-07
9.25516e-07
9.15464e-07
9.16333e-07
9.16693e-07
9.17412e-07
9.17774e-07
9.18496e-07
9.18862e-07
9.19585e-07
9.19957e-07
9.20679e-07
9.21059e-07
9.21777e-07
9.22169e-07
9.2288e-07
9.23286e-07
9.23988e-07
9.24408e-07
9.24756e-07
9.25317e-07
9.29626e-07
9.19514e-07
9.20389e-07
9.20751e-07
9.21475e-07
9.21839e-07
9.22565e-07
9.22933e-07
9.23661e-07
9.24034e-07
9.24761e-07
9.25143e-07
9.25865e-07
9.2626e-07
9.26975e-07
9.27383e-07
9.2809e-07
9.28512e-07
9.28863e-07
9.29426e-07
9.328e-07
9.22642e-07
9.2352e-07
9.23884e-07
9.24611e-07
9.24977e-07
9.25707e-07
9.26076e-07
9.26807e-07
9.27183e-07
9.27912e-07
9.28297e-07
9.29022e-07
9.29418e-07
9.30136e-07
9.30547e-07
9.31257e-07
9.31681e-07
9.32033e-07
9.32599e-07
9.35592e-07
9.25393e-07
9.26275e-07
9.2664e-07
9.2737e-07
9.27737e-07
9.2847e-07
9.28841e-07
9.29575e-07
9.29951e-07
9.30684e-07
9.3107e-07
9.31798e-07
9.32196e-07
9.32917e-07
9.33329e-07
9.34042e-07
9.34468e-07
9.34822e-07
9.3539e-07
9.38327e-07
9.28088e-07
9.28973e-07
9.2934e-07
9.30073e-07
9.30442e-07
9.31177e-07
9.31549e-07
9.32286e-07
9.32665e-07
9.334e-07
9.33788e-07
9.34518e-07
9.34918e-07
9.35642e-07
9.36056e-07
9.36771e-07
9.37199e-07
9.37554e-07
9.38124e-07
9.41185e-07
9.30904e-07
9.31793e-07
9.32161e-07
9.32897e-07
9.33267e-07
9.34005e-07
9.34379e-07
9.35119e-07
9.35499e-07
9.36238e-07
9.36627e-07
9.3736e-07
9.37762e-07
9.38488e-07
9.38904e-07
9.39622e-07
9.40052e-07
9.40408e-07
9.40981e-07
9.44235e-07
9.3391e-07
9.34802e-07
9.35172e-07
9.35911e-07
9.36283e-07
9.37024e-07
9.374e-07
9.38143e-07
9.38524e-07
9.39266e-07
9.39657e-07
9.40393e-07
9.40797e-07
9.41526e-07
9.41943e-07
9.42665e-07
9.43096e-07
9.43454e-07
9.4403e-07
9.47441e-07
9.37069e-07
9.37965e-07
9.38337e-07
9.39079e-07
9.39452e-07
9.40197e-07
9.40574e-07
9.41321e-07
9.41704e-07
9.42449e-07
9.42841e-07
9.43581e-07
9.43986e-07
9.44719e-07
9.45139e-07
9.45863e-07
9.46297e-07
9.46656e-07
9.47234e-07
9.50644e-07
9.40225e-07
9.41126e-07
9.41499e-07
9.42244e-07
9.4262e-07
9.43368e-07
9.43747e-07
9.44496e-07
9.44881e-07
9.45629e-07
9.46024e-07
9.46767e-07
9.47174e-07
9.4791e-07
9.48331e-07
9.49059e-07
9.49495e-07
9.49856e-07
9.50436e-07
9.5356e-07
9.43102e-07
9.44005e-07
9.4438e-07
9.45128e-07
9.45504e-07
9.46255e-07
9.46635e-07
9.47388e-07
9.47774e-07
9.48525e-07
9.48921e-07
9.49668e-07
9.50076e-07
9.50815e-07
9.51238e-07
9.51969e-07
9.52406e-07
9.52769e-07
9.53352e-07
9.55813e-07
9.45519e-07
9.46393e-07
9.46756e-07
9.47483e-07
9.4785e-07
9.48582e-07
9.48955e-07
9.49692e-07
9.50073e-07
9.50809e-07
9.51204e-07
9.51936e-07
9.52347e-07
9.53073e-07
9.53502e-07
9.54221e-07
9.54669e-07
9.55026e-07
9.55609e-07
9.56853e-07
9.56852e-07
9.56852e-07
9.56852e-07
9.56851e-07
9.56851e-07
9.56851e-07
9.56851e-07
9.5685e-07
9.5685e-07
9.5685e-07
9.5685e-07
9.5685e-07
9.5685e-07
9.5685e-07
9.5685e-07
9.5685e-07
9.5685e-07
9.5685e-07
9.5685e-07
)
;

boundaryField
{
    movingWall
    {
        type            zeroGradient;
    }
    fixedWalls
    {
        type            zeroGradient;
    }
    frontAndBack
    {
        type            empty;
    }
}


// ************************************************************************* //
