/*--------------------------------*- C++ -*----------------------------------*\
| =========                 |                                                 |
| \\      /  F ield         | OpenFOAM: The Open Source CFD Toolbox           |
|  \\    /   O peration     | Version:  2506                                  |
|   \\  /    A nd           | Website:  www.openfoam.com                      |
|    \\/     M anipulation  |                                                 |
\*---------------------------------------------------------------------------*/
FoamFile
{
    version     2.0;
    format      ascii;
    arch        "LSB;label=32;scalar=64";
    class       volVectorField;
    location    "6.875";
    object      diffU;
}
// * * * * * * * * * * * * * * * * * * * * * * * * * * * * * * * * * * * * * //

dimensions      [0 1 -1 0 0 0 0];

internalField   nonuniform List<vector> 
400
(
(0 0 0)
(1.96509e-14 -1.71865e-13 0)
(1.52101e-14 -1.34314e-13 0)
(1.54321e-14 -1.42971e-13 0)
(1.56541e-14 -1.41011e-13 0)
(1.4988e-14 -1.41405e-13 0)
(1.5099e-14 -1.41386e-13 0)
(1.4988e-14 -1.41429e-13 0)
(1.46549e-14 -1.41505e-13 0)
(1.46549e-14 -1.41625e-13 0)
(1.4877e-14 -1.41561e-13 0)
(1.4766e-14 -1.41469e-13 0)
(1.46549e-14 -1.41413e-13 0)
(1.44329e-14 -1.41414e-13 0)
(1.44329e-14 -1.41472e-13 0)
(1.44329e-14 -1.41515e-13 0)
(1.44329e-14 -1.41505e-13 0)
(1.44329e-14 -1.41466e-13 0)
(1.45439e-14 -1.4153e-13 0)
(1.44329e-14 -1.41552e-13 0)
(3.67484e-14 -1.36684e-13 0)
(6.66134e-15 -1.42717e-13 0)
(1.35447e-14 -1.41286e-13 0)
(1.31006e-14 -1.41682e-13 0)
(1.33227e-14 -1.41443e-13 0)
(1.35447e-14 -1.41386e-13 0)
(1.39888e-14 -1.41471e-13 0)
(1.42109e-14 -1.41469e-13 0)
(1.45439e-14 -1.41505e-13 0)
(1.42109e-14 -1.41537e-13 0)
(1.42109e-14 -1.41411e-13 0)
(1.39888e-14 -1.41282e-13 0)
(1.42109e-14 -1.41259e-13 0)
(1.37668e-14 -1.41354e-13 0)
(1.37668e-14 -1.41531e-13 0)
(1.42109e-14 -1.41648e-13 0)
(1.39888e-14 -1.41639e-13 0)
(1.42109e-14 -1.41577e-13 0)
(1.44329e-14 -1.41563e-13 0)
(1.42109e-14 -1.41635e-13 0)
(8.21565e-15 -2.70655e-13 0)
(1.59872e-14 -1.13633e-13 0)
(1.42109e-14 -1.48098e-13 0)
(1.39888e-14 -1.40153e-13 0)
(1.37668e-14 -1.41999e-13 0)
(1.37668e-14 -1.417e-13 0)
(1.39888e-14 -1.41774e-13 0)
(1.44329e-14 -1.41595e-13 0)
(1.39888e-14 -1.41449e-13 0)
(1.39888e-14 -1.41416e-13 0)
(1.37668e-14 -1.41451e-13 0)
(1.42109e-14 -1.41485e-13 0)
(1.44329e-14 -1.4139e-13 0)
(1.44329e-14 -1.41393e-13 0)
(1.44329e-14 -1.41615e-13 0)
(1.46549e-14 -1.41724e-13 0)
(1.45439e-14 -1.41694e-13 0)
(1.44329e-14 -1.41659e-13 0)
(1.44329e-14 -1.41575e-13 0)
(1.45439e-14 -1.41634e-13 0)
(-3.10862e-15 -3.31543e-14 0)
(1.90958e-14 -1.64912e-13 0)
(1.39888e-14 -1.36015e-13 0)
(1.4988e-14 -1.42671e-13 0)
(1.4766e-14 -1.4133e-13 0)
(1.46549e-14 -1.4175e-13 0)
(1.45439e-14 -1.41667e-13 0)
(1.42109e-14 -1.41592e-13 0)
(1.46549e-14 -1.41482e-13 0)
(1.44329e-14 -1.415e-13 0)
(1.45439e-14 -1.41643e-13 0)
(1.45439e-14 -1.41743e-13 0)
(1.45439e-14 -1.41584e-13 0)
(1.45439e-14 -1.41508e-13 0)
(1.46549e-14 -1.41582e-13 0)
(1.42109e-14 -1.4153e-13 0)
(1.44329e-14 -1.41514e-13 0)
(1.39888e-14 -1.41513e-13 0)
(1.44329e-14 -1.41573e-13 0)
(1.44329e-14 -1.41606e-13 0)
(4.13003e-14 -1.54171e-13 0)
(7.99361e-15 -1.3892e-13 0)
(1.55431e-14 -1.42211e-13 0)
(1.46549e-14 -1.41466e-13 0)
(1.4988e-14 -1.41585e-13 0)
(1.4877e-14 -1.4146e-13 0)
(1.4988e-14 -1.41472e-13 0)
(1.4988e-14 -1.41507e-13 0)
(1.4877e-14 -1.41477e-13 0)
(1.4877e-14 -1.4141e-13 0)
(1.4766e-14 -1.4147e-13 0)
(1.45439e-14 -1.41486e-13 0)
(1.44329e-14 -1.41459e-13 0)
(1.46549e-14 -1.41495e-13 0)
(1.45439e-14 -1.4147e-13 0)
(1.44329e-14 -1.41446e-13 0)
(1.44329e-14 -1.4151e-13 0)
(1.44329e-14 -1.41538e-13 0)
(1.44329e-14 -1.41614e-13 0)
(1.46549e-14 -1.41592e-13 0)
(-7.10543e-15 -2.46306e-13 0)
(1.93179e-14 -1.18395e-13 0)
(1.35447e-14 -1.46911e-13 0)
(1.42109e-14 -1.40362e-13 0)
(1.39888e-14 -1.41862e-13 0)
(1.39888e-14 -1.41515e-13 0)
(1.42109e-14 -1.41571e-13 0)
(1.42109e-14 -1.4155e-13 0)
(1.39888e-14 -1.41537e-13 0)
(1.42109e-14 -1.41493e-13 0)
(1.46549e-14 -1.41486e-13 0)
(1.44329e-14 -1.41537e-13 0)
(1.45439e-14 -1.41599e-13 0)
(1.44329e-14 -1.41618e-13 0)
(1.45439e-14 -1.41537e-13 0)
(1.4766e-14 -1.41464e-13 0)
(1.4988e-14 -1.41407e-13 0)
(1.45439e-14 -1.41446e-13 0)
(1.45439e-14 -1.41523e-13 0)
(1.44329e-14 -1.41543e-13 0)
(1.65423e-14 8.81518e-15 0)
(1.4877e-14 -1.73938e-13 0)
(1.53211e-14 -1.33969e-13 0)
(1.45439e-14 -1.43338e-13 0)
(1.4766e-14 -1.41303e-13 0)
(1.4877e-14 -1.41609e-13 0)
(1.4766e-14 -1.41372e-13 0)
(1.46549e-14 -1.41445e-13 0)
(1.45439e-14 -1.41551e-13 0)
(1.46549e-14 -1.41489e-13 0)
(1.44329e-14 -1.41443e-13 0)
(1.45439e-14 -1.41492e-13 0)
(1.44329e-14 -1.41579e-13 0)
(1.44329e-14 -1.41564e-13 0)
(1.44329e-14 -1.41562e-13 0)
(1.39888e-14 -1.4151e-13 0)
(1.39888e-14 -1.41432e-13 0)
(1.44329e-14 -1.41413e-13 0)
(1.44329e-14 -1.41422e-13 0)
(1.45439e-14 -1.41489e-13 0)
(2.18714e-14 -2.00151e-13 0)
(1.06581e-14 -1.28984e-13 0)
(1.31006e-14 -1.44492e-13 0)
(1.39888e-14 -1.40812e-13 0)
(1.33227e-14 -1.41644e-13 0)
(1.35447e-14 -1.41425e-13 0)
(1.35447e-14 -1.41457e-13 0)
(1.39888e-14 -1.41529e-13 0)
(1.37668e-14 -1.41558e-13 0)
(1.37668e-14 -1.41522e-13 0)
(1.39888e-14 -1.41466e-13 0)
(1.39888e-14 -1.41478e-13 0)
(1.37668e-14 -1.41533e-13 0)
(1.39888e-14 -1.41502e-13 0)
(1.42109e-14 -1.41559e-13 0)
(1.45439e-14 -1.41566e-13 0)
(1.44329e-14 -1.41568e-13 0)
(1.42109e-14 -1.41549e-13 0)
(1.42109e-14 -1.41527e-13 0)
(1.44329e-14 -1.41514e-13 0)
(7.99361e-15 -2.05384e-13 0)
(1.77636e-14 -1.27963e-13 0)
(1.5099e-14 -1.44754e-13 0)
(1.44329e-14 -1.40664e-13 0)
(1.42109e-14 -1.41531e-13 0)
(1.45439e-14 -1.41504e-13 0)
(1.46549e-14 -1.41697e-13 0)
(1.4766e-14 -1.41665e-13 0)
(1.46549e-14 -1.41512e-13 0)
(1.46549e-14 -1.41483e-13 0)
(1.46549e-14 -1.41412e-13 0)
(1.4988e-14 -1.41527e-13 0)
(1.4877e-14 -1.41674e-13 0)
(1.46549e-14 -1.41717e-13 0)
(1.45439e-14 -1.41756e-13 0)
(1.4766e-14 -1.41655e-13 0)
(1.46549e-14 -1.41509e-13 0)
(1.4766e-14 -1.41452e-13 0)
(1.46549e-14 -1.4148e-13 0)
(1.44329e-14 -1.41526e-13 0)
(1.31006e-14 -1.72224e-14 0)
(1.39888e-14 -1.68251e-13 0)
(1.39888e-14 -1.35054e-13 0)
(1.42109e-14 -1.42828e-13 0)
(1.42109e-14 -1.4113e-13 0)
(1.42109e-14 -1.41619e-13 0)
(1.42109e-14 -1.41558e-13 0)
(1.37668e-14 -1.41533e-13 0)
(1.37668e-14 -1.41588e-13 0)
(1.39888e-14 -1.41644e-13 0)
(1.45439e-14 -1.41597e-13 0)
(1.45439e-14 -1.41478e-13 0)
(1.45439e-14 -1.41466e-13 0)
(1.44329e-14 -1.41605e-13 0)
(1.44329e-14 -1.41711e-13 0)
(1.42109e-14 -1.41619e-13 0)
(1.44329e-14 -1.4146e-13 0)
(1.44329e-14 -1.4141e-13 0)
(1.42109e-14 -1.41465e-13 0)
(1.44329e-14 -1.41514e-13 0)
(1.22125e-14 -2.65734e-13 0)
(1.39888e-14 -1.14363e-13 0)
(1.37668e-14 -1.47681e-13 0)
(1.4766e-14 -1.40192e-13 0)
(1.4766e-14 -1.41826e-13 0)
(1.4766e-14 -1.4146e-13 0)
(1.4877e-14 -1.41591e-13 0)
(1.4766e-14 -1.41638e-13 0)
(1.52101e-14 -1.41761e-13 0)
(1.45439e-14 -1.41854e-13 0)
(1.46549e-14 -1.41863e-13 0)
(1.44329e-14 -1.41648e-13 0)
(1.45439e-14 -1.41427e-13 0)
(1.46549e-14 -1.41432e-13 0)
(1.44329e-14 -1.41449e-13 0)
(1.39888e-14 -1.41534e-13 0)
(1.39888e-14 -1.41605e-13 0)
(1.44329e-14 -1.41578e-13 0)
(1.44329e-14 -1.41535e-13 0)
(1.45439e-14 -1.4156e-13 0)
(2.04281e-14 -5.89427e-14 0)
(1.52101e-14 -1.60053e-13 0)
(1.62093e-14 -1.37242e-13 0)
(1.4877e-14 -1.42486e-13 0)
(1.5099e-14 -1.4124e-13 0)
(1.4877e-14 -1.41506e-13 0)
(1.4988e-14 -1.4158e-13 0)
(1.46549e-14 -1.4162e-13 0)
(1.4766e-14 -1.41576e-13 0)
(1.46549e-14 -1.41549e-13 0)
(1.44329e-14 -1.41573e-13 0)
(1.42109e-14 -1.41461e-13 0)
(1.42109e-14 -1.41418e-13 0)
(1.44329e-14 -1.41419e-13 0)
(1.44329e-14 -1.41383e-13 0)
(1.4766e-14 -1.41474e-13 0)
(1.4877e-14 -1.41588e-13 0)
(1.45439e-14 -1.41563e-13 0)
(1.46549e-14 -1.41458e-13 0)
(1.45439e-14 -1.41474e-13 0)
(1.57652e-14 -1.4775e-13 0)
(1.15463e-14 -1.39982e-13 0)
(1.28786e-14 -1.41773e-13 0)
(1.39888e-14 -1.41302e-13 0)
(1.35447e-14 -1.41511e-13 0)
(1.39888e-14 -1.41571e-13 0)
(1.39888e-14 -1.41563e-13 0)
(1.39888e-14 -1.41555e-13 0)
(1.37668e-14 -1.41588e-13 0)
(1.37668e-14 -1.41605e-13 0)
(1.37668e-14 -1.41523e-13 0)
(1.37668e-14 -1.41455e-13 0)
(1.39888e-14 -1.41558e-13 0)
(1.39888e-14 -1.41592e-13 0)
(1.42109e-14 -1.41535e-13 0)
(1.39888e-14 -1.41472e-13 0)
(1.39888e-14 -1.41545e-13 0)
(1.42109e-14 -1.41568e-13 0)
(1.42109e-14 -1.41528e-13 0)
(1.42109e-14 -1.41509e-13 0)
(1.26565e-14 -2.25587e-13 0)
(1.60982e-14 -1.22755e-13 0)
(1.53211e-14 -1.45945e-13 0)
(1.45439e-14 -1.40558e-13 0)
(1.4988e-14 -1.4175e-13 0)
(1.4877e-14 -1.41428e-13 0)
(1.46549e-14 -1.41509e-13 0)
(1.46549e-14 -1.4152e-13 0)
(1.4877e-14 -1.41567e-13 0)
(1.4766e-14 -1.41576e-13 0)
(1.4877e-14 -1.41471e-13 0)
(1.45439e-14 -1.41502e-13 0)
(1.46549e-14 -1.41607e-13 0)
(1.45439e-14 -1.41611e-13 0)
(1.46549e-14 -1.41563e-13 0)
(1.4766e-14 -1.41493e-13 0)
(1.4877e-14 -1.41495e-13 0)
(1.46549e-14 -1.41589e-13 0)
(1.44329e-14 -1.41631e-13 0)
(1.45439e-14 -1.41631e-13 0)
(4.44089e-16 -3.60196e-15 0)
(1.64313e-14 -1.71792e-13 0)
(1.28786e-14 -1.34685e-13 0)
(1.39888e-14 -1.43185e-13 0)
(1.37668e-14 -1.41187e-13 0)
(1.44329e-14 -1.41505e-13 0)
(1.42109e-14 -1.4154e-13 0)
(1.42109e-14 -1.4162e-13 0)
(1.42109e-14 -1.41565e-13 0)
(1.39888e-14 -1.41498e-13 0)
(1.39888e-14 -1.4152e-13 0)
(1.42109e-14 -1.41565e-13 0)
(1.45439e-14 -1.4148e-13 0)
(1.42109e-14 -1.41423e-13 0)
(1.44329e-14 -1.41487e-13 0)
(1.39888e-14 -1.4155e-13 0)
(1.44329e-14 -1.41561e-13 0)
(1.44329e-14 -1.41592e-13 0)
(1.45439e-14 -1.41525e-13 0)
(1.45439e-14 -1.41552e-13 0)
(3.63043e-14 -2.30867e-13 0)
(8.88178e-15 -1.2272e-13 0)
(1.4877e-14 -1.46075e-13 0)
(1.39888e-14 -1.40713e-13 0)
(1.39888e-14 -1.41954e-13 0)
(1.42109e-14 -1.41612e-13 0)
(1.44329e-14 -1.4148e-13 0)
(1.44329e-14 -1.41429e-13 0)
(1.42109e-14 -1.41429e-13 0)
(1.39888e-14 -1.4147e-13 0)
(1.39888e-14 -1.41602e-13 0)
(1.39888e-14 -1.41773e-13 0)
(1.37668e-14 -1.41701e-13 0)
(1.44329e-14 -1.41614e-13 0)
(1.45439e-14 -1.41549e-13 0)
(1.45439e-14 -1.41591e-13 0)
(1.45439e-14 -1.41601e-13 0)
(1.44329e-14 -1.41568e-13 0)
(1.42109e-14 -1.41522e-13 0)
(1.44329e-14 -1.41566e-13 0)
(-5.55112e-15 -1.7002e-13 0)
(2.03171e-14 -1.35132e-13 0)
(1.42109e-14 -1.4306e-13 0)
(1.45439e-14 -1.41194e-13 0)
(1.45439e-14 -1.41774e-13 0)
(1.37668e-14 -1.41716e-13 0)
(1.39888e-14 -1.41558e-13 0)
(1.42109e-14 -1.41339e-13 0)
(1.44329e-14 -1.41312e-13 0)
(1.44329e-14 -1.41506e-13 0)
(1.45439e-14 -1.41672e-13 0)
(1.4766e-14 -1.41759e-13 0)
(1.4877e-14 -1.41801e-13 0)
(1.46549e-14 -1.41779e-13 0)
(1.44329e-14 -1.41631e-13 0)
(1.45439e-14 -1.41549e-13 0)
(1.44329e-14 -1.41509e-13 0)
(1.46549e-14 -1.41495e-13 0)
(1.46549e-14 -1.41568e-13 0)
(1.44329e-14 -1.41592e-13 0)
(5.9952e-15 -2.41007e-14 0)
(1.59872e-14 -1.66999e-13 0)
(1.35447e-14 -1.3553e-13 0)
(1.45439e-14 -1.42728e-13 0)
(1.45439e-14 -1.4108e-13 0)
(1.44329e-14 -1.4154e-13 0)
(1.44329e-14 -1.4154e-13 0)
(1.42109e-14 -1.41608e-13 0)
(1.44329e-14 -1.41648e-13 0)
(1.4766e-14 -1.41736e-13 0)
(1.46549e-14 -1.41824e-13 0)
(1.45439e-14 -1.41812e-13 0)
(1.46549e-14 -1.41677e-13 0)
(1.46549e-14 -1.41545e-13 0)
(1.46549e-14 -1.41536e-13 0)
(1.46549e-14 -1.41547e-13 0)
(1.45439e-14 -1.41492e-13 0)
(1.45439e-14 -1.41448e-13 0)
(1.44329e-14 -1.41497e-13 0)
(1.45439e-14 -1.41502e-13 0)
(4.66294e-14 -1.87864e-13 0)
(6.43929e-15 -1.31996e-13 0)
(1.53211e-14 -1.4384e-13 0)
(1.37668e-14 -1.41131e-13 0)
(1.44329e-14 -1.41561e-13 0)
(1.44329e-14 -1.41465e-13 0)
(1.45439e-14 -1.41545e-13 0)
(1.4766e-14 -1.41676e-13 0)
(1.46549e-14 -1.41763e-13 0)
(1.45439e-14 -1.41686e-13 0)
(1.45439e-14 -1.41689e-13 0)
(1.44329e-14 -1.41716e-13 0)
(1.39888e-14 -1.41597e-13 0)
(1.42109e-14 -1.41526e-13 0)
(1.42109e-14 -1.41591e-13 0)
(1.42109e-14 -1.41587e-13 0)
(1.42109e-14 -1.41455e-13 0)
(1.42109e-14 -1.41456e-13 0)
(1.44329e-14 -1.41505e-13 0)
(1.44329e-14 -1.41514e-13 0)
(2.22045e-16 -2.2467e-13 0)
(1.87628e-14 -1.23511e-13 0)
(1.5099e-14 -1.45888e-13 0)
(1.52101e-14 -1.4074e-13 0)
(1.4988e-14 -1.41853e-13 0)
(1.4988e-14 -1.41609e-13 0)
(1.4877e-14 -1.41662e-13 0)
(1.4988e-14 -1.41615e-13 0)
(1.4877e-14 -1.41591e-13 0)
(1.45439e-14 -1.41546e-13 0)
(1.4766e-14 -1.41534e-13 0)
(1.44329e-14 -1.41535e-13 0)
(1.45439e-14 -1.41535e-13 0)
(1.44329e-14 -1.41561e-13 0)
(1.46549e-14 -1.41612e-13 0)
(1.44329e-14 -1.41609e-13 0)
(1.44329e-14 -1.4156e-13 0)
(1.44329e-14 -1.41555e-13 0)
(1.45439e-14 -1.41524e-13 0)
(1.44329e-14 -1.41535e-13 0)
)
;

boundaryField
{
    movingWall
    {
        type            calculated;
        value           uniform (1.44329e-14 -1.41528e-13 0);
    }
    fixedWalls
    {
        type            calculated;
        value           uniform (1.44329e-14 -1.41528e-13 0);
    }
    frontAndBack
    {
        type            empty;
    }
}


// ************************************************************************* //
