/*--------------------------------*- C++ -*----------------------------------*\
| =========                 |                                                 |
| \\      /  F ield         | OpenFOAM: The Open Source CFD Toolbox           |
|  \\    /   O peration     | Version:  2506                                  |
|   \\  /    A nd           | Website:  www.openfoam.com                      |
|    \\/     M anipulation  |                                                 |
\*---------------------------------------------------------------------------*/
FoamFile
{
    version     2.0;
    format      ascii;
    arch        "LSB;label=32;scalar=64";
    class       volScalarField;
    location    "6.875";
    object      divU;
}
// * * * * * * * * * * * * * * * * * * * * * * * * * * * * * * * * * * * * * //

dimensions      [0 0 -1 0 0 0 0];

internalField   nonuniform List<scalar> 
400
(
1.37152e-11
-1.63481e-12
3.3892e-13
-1.32681e-13
3.30984e-14
-2.77101e-14
-7.2696e-15
-1.12872e-14
-2.25682e-14
-1.06794e-14
3.53865e-14
3.40974e-15
1.12593e-14
1.62414e-15
5.31324e-15
-1.07314e-14
-8.85727e-15
1.25308e-15
-3.71555e-15
0
-2.55872e-11
3.45652e-12
-7.14167e-13
2.84627e-13
-6.57081e-14
2.40615e-14
8.188e-15
5.34291e-14
1.01209e-14
-4.40072e-14
-7.77314e-15
1.76213e-15
1.35165e-14
-5.04891e-14
4.52091e-14
-4.51239e-15
-2.77266e-14
3.61384e-14
-6.24106e-14
2.71051e-14
9.92045e-12
-1.66316e-12
3.27928e-13
-1.39515e-13
-5.44254e-14
1.47851e-14
1.56903e-14
-1.30597e-14
-1.46354e-14
1.38675e-14
-3.08989e-14
-1.7226e-14
3.51838e-14
-1.16314e-14
1.29611e-14
7.30334e-15
-1.52448e-14
1.54959e-14
1.79277e-14
-2.71051e-14
1.0327e-11
-8.03724e-13
1.57692e-13
-5.39555e-14
1.40721e-14
1.16991e-14
-3.5454e-14
-4.34578e-15
3.67944e-14
-3.96552e-14
2.13695e-14
9.7866e-15
1.18583e-15
-2.1824e-14
3.73725e-16
-1.90905e-14
3.02315e-14
4.48767e-16
4.10651e-14
0
-1.92988e-11
2.08608e-12
-4.16902e-13
1.49906e-13
-1.20587e-14
8.04732e-15
2.83348e-14
-2.37286e-16
-2.29545e-14
-1.18427e-14
-1.71536e-14
-2.38213e-14
2.68038e-14
-5.75592e-15
-2.22041e-14
1.45977e-14
1.38838e-14
7.11849e-15
1.89566e-14
0
1.46096e-11
-1.41571e-12
3.25908e-13
-1.72867e-13
-1.10372e-14
2.02164e-14
1.12632e-14
5.97647e-15
-3.03009e-14
6.15319e-14
3.97323e-14
-2.44419e-14
-1.23276e-14
-1.2678e-14
4.98822e-14
8.21204e-15
-3.24964e-14
-7.49044e-15
-1.59911e-14
0
4.87891e-12
-1.20062e-12
2.15515e-13
-1.09476e-13
3.79091e-14
2.1278e-15
-4.37951e-15
-1.89583e-14
2.182e-14
-2.26449e-14
1.46513e-14
-1.8537e-14
-5.6812e-15
-1.03239e-15
-6.07599e-14
-2.91305e-14
5.55772e-15
3.63948e-14
3.7758e-14
-2.71051e-14
-2.10335e-11
3.668e-12
-7.27398e-13
3.20647e-13
-6.61866e-14
1.26588e-14
1.73097e-14
4.04116e-14
-5.56037e-14
5.9277e-14
-9.3202e-15
-4.9092e-14
3.90974e-14
1.08119e-14
2.82802e-14
-1.65415e-14
-2.20085e-15
-4.87728e-14
5.90694e-14
0
1.79978e-11
-3.21311e-12
5.9584e-13
-2.60448e-13
3.93986e-14
2.03309e-14
7.12762e-15
1.28914e-14
-4.368e-15
-7.14554e-15
4.67186e-15
5.062e-15
-8.38765e-15
4.85318e-16
-1.40167e-14
5.29501e-15
8.63479e-15
1.93635e-14
-1.60457e-14
-2.71051e-14
-6.23416e-12
1.48074e-12
-2.93252e-13
8.48343e-14
-1.71526e-14
-2.3708e-15
-9.33983e-15
-3.86507e-14
2.48655e-14
-1.71402e-14
4.08855e-14
-7.06592e-15
-1.0852e-14
2.90079e-14
4.37827e-14
1.74142e-14
-9.54476e-16
-7.45798e-14
5.9712e-14
0
-4.44523e-12
9.99447e-13
-1.86841e-13
1.46101e-13
-9.77701e-16
8.92496e-15
1.55688e-14
6.82684e-15
-2.81402e-14
-7.65598e-15
-3.80697e-14
-5.34863e-15
-6.13298e-15
2.05207e-14
-5.89848e-14
-2.23426e-14
1.33234e-14
4.56315e-14
6.23249e-15
0
1.24954e-11
-2.99896e-12
5.66667e-13
-2.08822e-13
3.05162e-14
-2.20964e-15
-3.58704e-14
-1.19306e-14
1.63357e-14
-9.81716e-15
-4.10116e-15
-4.02426e-14
3.4999e-14
-2.25945e-14
4.07725e-14
1.09192e-14
1.93039e-14
-7.50425e-15
-2.01314e-14
-2.71051e-14
-1.68593e-11
3.49557e-12
-6.28864e-13
2.5512e-13
-4.76158e-14
5.98164e-14
-1.67857e-15
-1.90063e-15
-6.41154e-14
-1.24593e-14
6.13774e-15
3.69332e-14
-1.09464e-14
-1.47054e-14
-3.14073e-14
9.01099e-15
1.49845e-15
1.69959e-14
-1.03221e-14
5.42101e-14
1.44199e-11
-2.93803e-12
5.67808e-13
-2.31339e-13
6.60844e-14
-1.48356e-14
5.59675e-16
-8.43792e-15
-7.62229e-15
-1.78848e-15
6.51811e-15
-1.18017e-15
-3.0256e-14
2.9313e-14
2.76618e-14
2.83248e-14
-2.71886e-14
-3.96801e-14
-1.00306e-14
-2.71051e-14
-1.73472e-12
1.23964e-12
-2.85468e-13
1.3254e-13
-8.55733e-15
7.52472e-14
-5.07038e-14
7.03959e-16
6.12218e-15
-1.83158e-14
-6.61992e-15
5.30986e-14
-1.25601e-14
1.86712e-15
-5.22525e-14
-8.51134e-15
4.359e-14
1.66795e-14
8.88731e-16
-2.71051e-14
-1.49891e-11
1.51751e-12
-3.36911e-13
1.14805e-13
-6.72426e-14
5.40578e-14
1.76793e-15
-2.53925e-14
4.32437e-15
7.9766e-15
-2.18461e-14
-2.05716e-14
-4.45974e-14
4.75103e-14
1.4677e-14
-8.39092e-15
-3.2478e-14
-5.49133e-14
5.08218e-14
0
1.92717e-11
-2.4767e-12
5.00829e-13
-1.6794e-13
-6.97962e-15
-2.00542e-14
-4.20414e-15
6.50445e-14
-1.75426e-14
-1.86025e-14
3.72766e-14
2.60066e-15
1.19986e-14
-2.68519e-14
-3.82308e-14
-4.03336e-15
3.25532e-14
3.83808e-14
-2.80711e-14
-2.71051e-14
-2.46656e-12
1.03524e-12
-2.00606e-13
1.09434e-13
-1.28342e-14
3.21558e-14
-5.71543e-14
-2.29174e-14
4.57338e-14
1.75805e-14
8.49191e-15
6.96518e-15
3.23554e-14
2.55854e-14
-7.11689e-15
-7.82828e-15
-1.62984e-14
-1.1962e-14
3.24453e-14
-2.71051e-14
-1.76454e-11
1.2369e-12
-3.14931e-13
1.18455e-13
-3.58652e-14
-1.91569e-15
3.9076e-14
3.47755e-15
-2.98789e-14
9.44654e-15
1.03578e-14
-1.95687e-14
-7.66575e-15
2.39293e-14
-1.46936e-14
-1.39759e-14
4.05244e-15
3.15023e-14
2.72051e-15
0
1.19804e-11
-1.30104e-12
3.25261e-13
-1.0842e-13
0
0
0
2.71051e-14
0
2.71051e-14
2.71051e-14
-2.71051e-14
0
2.71051e-14
2.71051e-14
0
0
2.71051e-14
-2.71051e-14
0
)
;

boundaryField
{
    movingWall
    {
        type            extrapolatedCalculated;
        value           nonuniform List<scalar> 
20
(
1.19804e-11
-1.30104e-12
3.25261e-13
-1.0842e-13
0
0
0
2.71051e-14
0
2.71051e-14
2.71051e-14
-2.71051e-14
0
2.71051e-14
2.71051e-14
0
0
2.71051e-14
-2.71051e-14
0
)
;
    }
    fixedWalls
    {
        type            extrapolatedCalculated;
        value           nonuniform List<scalar> 
60
(
1.37152e-11
-2.55872e-11
9.92045e-12
1.0327e-11
-1.92988e-11
1.46096e-11
4.87891e-12
-2.10335e-11
1.79978e-11
-6.23416e-12
-4.44523e-12
1.24954e-11
-1.68593e-11
1.44199e-11
-1.73472e-12
-1.49891e-11
1.92717e-11
-2.46656e-12
-1.76454e-11
1.19804e-11
0
2.71051e-14
-2.71051e-14
0
0
0
-2.71051e-14
0
-2.71051e-14
0
0
-2.71051e-14
5.42101e-14
-2.71051e-14
-2.71051e-14
0
-2.71051e-14
-2.71051e-14
0
0
1.37152e-11
-1.63481e-12
3.3892e-13
-1.32681e-13
3.30984e-14
-2.77101e-14
-7.2696e-15
-1.12872e-14
-2.25682e-14
-1.06794e-14
3.53865e-14
3.40974e-15
1.12593e-14
1.62414e-15
5.31324e-15
-1.07314e-14
-8.85727e-15
1.25308e-15
-3.71555e-15
0
)
;
    }
    frontAndBack
    {
        type            empty;
    }
}


// ************************************************************************* //
