/*--------------------------------*- C++ -*----------------------------------*\
| =========                 |                                                 |
| \\      /  F ield         | OpenFOAM: The Open Source CFD Toolbox           |
|  \\    /   O peration     | Version:  2506                                  |
|   \\  /    A nd           | Website:  www.openfoam.com                      |
|    \\/     M anipulation  |                                                 |
\*---------------------------------------------------------------------------*/
FoamFile
{
    version     2.0;
    format      ascii;
    arch        "LSB;label=32;scalar=64";
    class       volScalarField;
    location    "6.875";
    object      enstrophyField;
}
// * * * * * * * * * * * * * * * * * * * * * * * * * * * * * * * * * * * * * //

dimensions      [0 0 -2 0 0 0 0];

internalField   nonuniform List<scalar> 
400
(
5.33854e-23
8.62412e-23
4.17434e-24
2.06432e-25
5.2463e-27
1.38584e-28
4.35422e-28
2.18448e-27
2.72938e-27
1.57947e-29
6.53432e-29
1.10164e-28
1.48236e-29
1.16829e-27
2.53578e-27
5.58651e-30
1.74922e-27
3.09498e-30
3.73769e-29
3.54159e-30
1.00243e-25
5.81661e-27
2.85654e-26
7.18586e-27
3.0377e-26
8.80717e-27
5.01431e-27
5.51351e-27
5.16091e-27
2.0209e-27
8.97011e-27
4.66139e-27
2.61402e-29
3.69352e-28
4.31016e-28
5.86217e-29
2.48296e-29
1.91208e-27
1.65905e-29
1.00925e-28
1.88425e-23
6.05976e-23
3.66171e-24
7.72447e-26
4.21104e-26
6.38823e-27
1.37206e-28
5.26453e-28
6.62567e-28
1.18645e-32
5.76697e-28
2.83241e-27
4.22227e-29
2.93788e-27
1.00116e-26
3.11865e-29
2.79875e-27
7.07627e-29
3.06575e-30
6.91031e-29
1.34791e-23
4.48686e-23
2.18097e-24
1.71504e-25
9.41017e-28
1.00979e-26
4.28688e-27
1.9703e-27
1.01658e-27
7.75382e-27
8.79896e-27
2.26475e-28
6.46122e-30
3.61384e-28
4.29165e-28
1.86092e-27
4.14686e-28
1.69888e-29
4.39972e-29
7.61617e-29
1.94731e-25
6.51842e-25
2.58674e-26
1.03528e-26
3.35643e-27
2.14387e-27
2.49528e-28
1.26353e-31
2.04744e-27
3.86133e-28
2.91577e-29
3.97732e-28
3.4307e-28
5.33372e-31
5.12986e-28
6.32411e-27
2.0142e-27
4.20973e-27
1.43115e-29
1.13776e-28
1.60796e-23
4.28907e-23
2.35338e-24
1.27459e-25
6.65513e-27
4.24066e-28
2.78148e-28
4.65996e-28
1.79572e-27
5.19109e-28
2.59074e-28
7.3946e-28
6.20715e-28
5.55783e-28
1.19009e-28
2.26041e-27
4.17184e-28
6.71623e-29
4.75706e-29
3.96331e-28
3.95427e-23
9.02925e-23
4.8491e-24
2.30663e-25
3.232e-26
1.1228e-27
2.49178e-27
1.59893e-28
9.5624e-30
2.1071e-27
3.2804e-27
2.29246e-27
5.12152e-27
1.56658e-27
3.76516e-27
2.25959e-27
4.1348e-27
3.38708e-27
1.08879e-27
8.64579e-28
7.09759e-24
1.41616e-23
6.67803e-25
4.05449e-26
2.53109e-29
1.05106e-27
5.37196e-29
5.12891e-29
2.35654e-31
4.25933e-29
9.78759e-30
1.85681e-27
3.50313e-27
1.61558e-27
1.84015e-27
5.97624e-27
3.16984e-27
1.25525e-27
1.28536e-27
3.29686e-28
8.54743e-24
1.63056e-23
9.50149e-25
3.59196e-26
1.367e-26
4.79004e-27
2.47119e-27
2.64555e-27
1.65235e-28
4.94891e-29
6.36117e-27
3.23033e-27
2.68155e-27
6.22661e-28
1.92634e-29
1.33858e-27
2.05756e-28
1.31355e-27
2.72734e-29
1.24599e-29
4.34739e-23
6.5022e-23
3.51301e-24
1.84606e-25
2.22153e-27
9.16491e-28
1.70249e-28
4.26453e-30
4.27127e-27
4.13061e-31
9.54222e-28
2.26591e-27
1.04349e-28
3.01352e-28
9.76217e-31
8.91653e-27
5.22272e-27
1.44076e-27
5.46316e-29
2.88217e-29
5.44552e-23
6.84079e-23
3.84374e-24
1.27138e-25
2.16469e-26
4.7091e-28
2.59469e-27
7.8757e-27
5.29462e-27
7.03255e-27
2.12151e-28
9.4935e-28
1.18743e-27
2.26936e-30
5.1984e-29
4.70086e-27
1.72118e-27
2.44074e-29
3.19888e-28
2.66997e-28
1.83231e-23
2.87739e-23
1.68907e-24
5.06875e-26
1.6077e-26
2.02619e-28
9.17384e-28
1.49553e-27
1.44052e-26
5.90424e-27
4.06162e-27
4.68346e-27
3.66e-27
3.59585e-27
1.18333e-27
2.09401e-28
3.94227e-29
8.48563e-29
6.47495e-28
1.08962e-28
5.07116e-26
1.33319e-25
2.78696e-28
3.23202e-27
3.72566e-28
1.35301e-29
4.13568e-28
1.33778e-27
1.24631e-29
2.06183e-29
1.12063e-28
4.67496e-28
4.51383e-27
2.61011e-30
8.92093e-28
5.03968e-31
4.55436e-29
1.52684e-30
1.69354e-29
1.66974e-30
1.24185e-23
2.79476e-23
1.6333e-24
8.80043e-26
9.98084e-27
4.55295e-28
4.19696e-29
1.79715e-27
3.77417e-27
9.94076e-28
1.0995e-27
2.29989e-27
2.11541e-27
1.24255e-27
1.17951e-28
2.31518e-29
2.03435e-27
8.27149e-28
8.70748e-30
2.10801e-29
3.51202e-23
7.69242e-23
4.32759e-24
1.94128e-25
3.10923e-26
1.77876e-28
6.66493e-29
2.976e-30
4.37399e-27
3.68375e-27
2.7831e-27
3.63443e-27
7.52066e-27
2.12324e-31
1.0326e-28
1.09349e-27
1.24958e-27
4.72043e-28
7.99359e-30
4.28467e-28
2.08452e-23
3.28023e-23
1.92469e-24
7.41187e-26
6.83589e-27
8.28539e-27
2.63012e-27
1.27793e-29
1.7018e-27
9.84177e-28
1.64753e-27
4.15853e-27
7.35334e-28
7.12301e-29
2.77479e-30
3.73662e-27
2.65481e-30
1.84649e-28
6.83181e-33
5.29155e-30
3.41266e-25
1.92902e-24
9.83955e-26
1.11783e-27
8.9186e-27
2.33241e-28
7.12817e-28
3.10598e-27
1.39625e-28
6.88312e-27
5.68934e-27
2.24978e-27
1.57917e-27
5.10567e-29
8.18864e-30
7.42734e-29
1.44909e-29
5.44777e-28
6.78156e-28
5.4544e-29
7.8579e-24
4.76339e-23
2.62568e-24
1.12232e-25
1.06459e-26
8.09538e-27
3.88822e-27
2.11571e-27
7.93262e-28
9.98672e-28
6.03999e-28
8.73649e-28
9.13503e-27
2.33217e-27
3.60875e-28
4.95841e-28
4.9259e-29
1.44181e-27
2.34685e-28
1.56299e-29
4.75587e-24
8.53384e-24
5.78982e-25
1.07387e-26
3.84299e-27
1.38351e-27
1.16182e-27
5.31614e-27
3.94555e-28
5.97017e-28
4.39298e-30
6.5786e-28
1.80096e-28
2.12562e-31
1.84161e-29
9.16341e-29
8.50948e-29
1.22791e-29
5.40108e-28
6.81006e-30
1.11566e-23
2.83189e-23
1.21718e-24
9.2738e-26
5.34669e-28
2.68891e-27
1.43634e-27
3.90447e-27
1.87059e-27
5.37492e-28
1.52705e-27
3.72842e-33
1.61288e-27
2.94906e-29
1.11921e-29
1.35639e-29
1.41911e-29
6.56557e-30
4.25098e-28
3.95657e-32
)
;

boundaryField
{
    movingWall
    {
        type            calculated;
        value           nonuniform List<scalar> 
20
(
7.43829e-23
4.61772e-23
1.06058e-24
2.55203e-25
9.13057e-27
2.9081e-26
1.56686e-26
2.62429e-26
1.70369e-26
1.25454e-27
9.01565e-27
3.72842e-33
8.7459e-28
2.94906e-29
3.53528e-27
1.35639e-29
1.41911e-29
6.56557e-30
1.07936e-27
3.95657e-32
)
;
    }
    fixedWalls
    {
        type            calculated;
        value           nonuniform List<scalar> 
60
(
1.55822e-21
6.31989e-25
1.13604e-21
8.01704e-22
1.09402e-23
7.76873e-22
1.63803e-21
2.55581e-22
3.03758e-22
1.21468e-21
1.2708e-21
5.34045e-22
1.44955e-24
5.14524e-22
1.39313e-21
6.17384e-22
3.49544e-23
8.71094e-22
1.60886e-22
4.95119e-22
4.78996e-29
9.17002e-28
1.20018e-28
4.94738e-28
3.29507e-28
5.56981e-28
9.08909e-28
2.33891e-28
2.89798e-31
1.42507e-29
9.99871e-29
1.61707e-29
2.71436e-29
9.95848e-29
6.80295e-28
1.19505e-28
3.32242e-28
5.23036e-29
1.53324e-29
3.8716e-30
1.42673e-22
1.20414e-22
3.32445e-24
5.71733e-25
5.50638e-26
3.36977e-26
3.61425e-26
2.73622e-26
5.88517e-27
4.4593e-27
1.31159e-26
7.00731e-27
3.47552e-27
1.72401e-29
5.10072e-29
5.58651e-30
1.21898e-29
3.09498e-30
1.40741e-27
3.54159e-30
)
;
    }
    frontAndBack
    {
        type            empty;
    }
}


// ************************************************************************* //
