/*--------------------------------*- C++ -*----------------------------------*\
| =========                 |                                                 |
| \\      /  F ield         | OpenFOAM: The Open Source CFD Toolbox           |
|  \\    /   O peration     | Version:  2506                                  |
|   \\  /    A nd           | Website:  www.openfoam.com                      |
|    \\/     M anipulation  |                                                 |
\*---------------------------------------------------------------------------*/
FoamFile
{
    version     2.0;
    format      ascii;
    arch        "LSB;label=32;scalar=64";
    class       volScalarField;
    location    "6.875";
    object      flowTypeField;
}
// * * * * * * * * * * * * * * * * * * * * * * * * * * * * * * * * * * * * * //

dimensions      [0 0 0 0 0 0 0];

internalField   nonuniform List<scalar> 
400
(
0.396559
0.0526835
0.0398049
0.066021
0.383223
0.757907
0.284484
-0.0370361
-0.171968
0.45333
0.660297
0.59
0.832626
0.255699
0.124785
0.600956
-0.0745758
0.0814469
0.0729268
0.705375
0.976884
0.975958
0.801285
0.559496
-0.0201402
0.103663
0.198186
0.212654
0.0636901
0.189317
-0.181045
-0.185499
0.0406863
0.492919
0.478575
0.626886
0.569951
0.203381
0.846592
0.684182
0.536319
0.115561
0.00178908
0.361723
-0.563055
0.235262
0.559581
0.0616171
0.378755
0.744962
0.0609951
0.209558
0.803039
-0.327565
-0.248784
0.380823
0.130208
0.109683
0.849587
0.646485
0.593472
0.114229
0.104517
-0.0547035
0.688385
-0.266056
0.241791
0.229605
0.240731
-0.108772
-0.177028
0.209353
0.847868
0.067749
0.257564
0.232281
0.113337
0.482583
0.771345
0.0500286
0.959606
0.73932
0.779043
0.412311
0.240887
0.00713638
0.388782
0.687748
-0.038451
-0.0242667
0.690941
0.500055
0.28391
0.807633
0.162627
-0.0350933
-0.142555
-0.123034
0.737262
0.461431
0.636177
0.132096
0.0909416
0.0617202
0.0512604
0.282139
0.17303
-0.0921141
0.0221824
0.564591
0.36484
0.0368372
-0.156951
-0.17798
0.664293
-0.0816246
0.236889
0.566827
0.646554
0.0285625
0.28785
0.0613163
-0.0144537
0.0777877
-0.417732
0.134612
-0.111927
0.39748
0.771576
-0.0545893
0.00416253
0.203654
0.0677195
-0.00893583
0.107689
-0.0719648
-0.0367108
0.151698
0.215487
-0.0121034
0.781874
0.247134
0.26964
0.254487
0.896315
-0.447125
0.782425
0.771574
0.964703
0.773822
0.151863
0.192381
0.138469
0.0868384
0.215526
0.00058103
0.0249333
0.313334
0.307283
0.0593162
0.730413
0.198708
0.142859
0.281334
-0.386864
-0.099043
-0.112473
-0.337356
0.0125569
0.318992
-0.0016317
-0.476501
-0.159456
-0.1879
0.53882
-0.719487
0.10902
0.0813857
0.668399
0.747057
0.175566
0.0384073
-0.0355157
0.00396627
0.456816
0.00514915
0.484981
0.910594
0.0852721
0.951981
0.498448
-0.201133
0.626607
0.309771
0.908984
-0.220435
-0.243268
0.279519
0.751002
0.0787179
0.0146009
0.0116648
-0.0692511
0.152504
-0.621682
0.436632
-0.151089
-0.113276
-0.18205
-0.0543017
0.350999
0.000763031
-0.682178
0.81058
0.839661
-0.102906
0.0533991
0.825875
0.0654351
0.151564
0.497208
0.0780604
0.00932022
0.247856
-0.57713
0.625316
0.276217
0.100353
-0.0373823
0.0495203
0.0263467
0.0389636
0.125301
-0.0224228
0.33323
0.0402381
0.149995
0.00320428
0.0810312
0.568189
0.973315
0.823138
0.963314
0.557466
0.592031
0.859723
-0.0244681
0.0601914
0.863059
0.0660317
0.15739
0.443478
-0.132092
0.80679
0.25014
0.354007
0.246463
0.882303
0.596812
0.938972
0.629569
0.123376
0.0576405
0.0901341
-0.346736
0.481947
0.0262168
-0.0958439
-0.0674129
0.188204
0.133248
-0.215944
-0.0487961
0.117128
0.552363
0.69138
-0.0395628
0.00155211
0.00207663
0.792543
0.22616
0.0577877
-0.0237012
0.0610723
-0.461545
0.767487
0.729525
0.630022
-0.130448
0.00740373
0.0925153
0.253947
-0.12551
0.0552459
0.70495
0.147345
0.319218
0.185639
0.559495
0.224461
0.587583
0.138381
0.0421878
0.162096
-0.0580174
-0.0202933
-0.332526
0.876043
0.107158
-0.618686
-0.442192
-0.0865871
0.366
0.826634
0.870301
-0.0625766
0.859382
0.624138
0.978989
0.292294
0.945961
0.59147
0.611915
0.76279
0.123173
0.345642
0.0119835
0.211352
0.346123
-0.329178
-0.0322088
-0.230156
-0.0351915
0.694465
0.861441
0.0539032
0.748435
0.1715
0.067108
0.576091
0.574636
0.12603
0.0576704
0.160109
-0.167524
-0.431331
0.0951448
-0.004246
0.53286
0.0248953
-0.271799
-0.489552
-0.217617
-0.117454
0.0188739
-0.144829
0.588318
0.109174
0.396562
0.733661
0.807037
0.36559
0.287363
0.493394
0.211418
0.0368399
0.2383
-0.26569
0.247953
-0.0187235
0.878765
0.411213
0.417917
0.932842
0.315468
0.0821922
0.101967
0.866261
-0.200274
0.200582
0.620185
0.107468
0.162631
-0.0220582
0.646283
-0.346943
0.13284
-0.0405045
0.0945062
0.00172723
0.0255053
0.980882
-0.0364585
0.653753
0.60387
0.763681
0.171439
0.803325
0.219479
0.270367
)
;

boundaryField
{
    movingWall
    {
        type            calculated;
        value           nonuniform List<scalar> 
20
(
0.588323
0.113868
0.375397
-0.221521
0.4546
-0.0733745
0.0542776
-0.0187491
-0.0165333
-0.109521
-0.00767543
0.979729
0.0592417
0.680658
0.109645
0.822054
0.529685
0.813978
0.101972
0.649552
)
;
    }
    fixedWalls
    {
        type            calculated;
        value           nonuniform List<scalar> 
60
(
0.0488519
0.945815
0.0946834
0.115146
0.759301
0.132826
0.0509746
0.266701
0.202529
0.0159119
-0.0109627
0.0683546
0.866451
0.117999
0.0479468
0.123283
0.609947
0.113997
0.367223
0.123672
0.348579
0.509364
0.707622
0.00869506
0.660942
-0.132108
0.197696
0.202879
0.000532464
0.1343
0.671021
0.852656
0.881718
0.726892
0.277629
0.0300577
0.0284854
0.713105
0.1174
0.0231686
0.652204
0.142664
0.338452
-0.107995
0.3621
-0.1016
0.0176933
-0.0286393
-0.14948
0.0275975
0.0996851
0.138176
0.181809
0.840218
0.518075
0.35908
0.439114
0.836392
-0.191368
0.629243
)
;
    }
    frontAndBack
    {
        type            empty;
    }
}


// ************************************************************************* //
