/*--------------------------------*- C++ -*----------------------------------*\
| =========                 |                                                 |
| \\      /  F ield         | OpenFOAM: The Open Source CFD Toolbox           |
|  \\    /   O peration     | Version:  2506                                  |
|   \\  /    A nd           | Website:  www.openfoam.com                      |
|    \\/     M anipulation  |                                                 |
\*---------------------------------------------------------------------------*/
FoamFile
{
    version     2.0;
    format      ascii;
    arch        "LSB;label=32;scalar=64";
    class       surfaceScalarField;
    location    "6.875";
    object      fluxField;
}
// * * * * * * * * * * * * * * * * * * * * * * * * * * * * * * * * * * * * * //

dimensions      [0 3 -1 0 0 0 0];

oriented        oriented;

internalField   nonuniform List<scalar> 
760
(
-5e-05
3.65928e-18
-5e-05
-7.88173e-19
-5e-05
1.86374e-19
-5e-05
-3.99466e-20
-5e-05
1.50509e-20
-5e-05
6.625e-21
-5e-05
4.95886e-21
-5e-05
3.95445e-21
-5e-05
1.13422e-21
-5e-05
-2.66984e-21
-5e-05
2.07037e-21
-5e-05
7.6287e-21
-5e-05
9.59108e-21
-5e-05
7.1823e-21
-5e-05
1.32831e-21
-5e-05
-2.68285e-21
-5e-05
-2.21432e-21
-5e-05
3.1327e-22
-5e-05
-9.28887e-22
-3.28831e-21
-5e-05
-3.10708e-18
-5e-05
6.67619e-19
-5e-05
-1.58213e-19
-5e-05
3.04991e-20
-5e-05
-9.65076e-21
-5e-05
-7.60881e-22
-5e-05
-4.72926e-21
-5e-05
-1.95255e-22
-5e-05
2.53022e-21
-5e-05
2.55072e-21
-5e-05
4.83298e-21
-5e-05
7.2168e-21
-5e-05
1.01554e-20
-5e-05
7.70652e-21
-5e-05
-2.25026e-21
-5e-05
-7.90436e-21
-5e-05
-6.93165e-21
-5e-05
-4.51793e-21
-5e-05
-2.05011e-21
-5.33896e-21
-5e-05
-5.18834e-19
-5e-05
1.12759e-19
-5e-05
-2.64382e-20
-5e-05
5.77873e-21
-5e-05
-6.83008e-21
-5e-05
-9.85626e-21
-5e-05
-9.62996e-21
-5e-05
-3.26493e-21
-5e-05
3.1174e-21
-5e-05
3.46688e-21
-5e-05
-9.48472e-22
-5e-05
-4.30651e-21
-5e-05
2.01969e-21
-5e-05
3.86841e-21
-5e-05
-3.53599e-21
-5e-05
-4.95043e-21
-5e-05
-3.81119e-21
-5e-05
-2.90229e-21
-5e-05
-2.29434e-21
-4.62838e-21
-5e-05
2.39327e-18
-5e-05
-5.19415e-19
-5e-05
1.20738e-19
-5e-05
-2.70414e-20
-5e-05
3.51802e-21
-5e-05
-3.85148e-21
-5e-05
-2.08723e-21
-5e-05
-1.08645e-21
-5e-05
2.42234e-21
-5e-05
3.63874e-21
-5e-05
-1.43388e-21
-5e-05
-4.32961e-21
-5e-05
2.96458e-22
-5e-05
1.32026e-21
-5e-05
9.34313e-23
-5e-05
2.00364e-21
-5e-05
7.81617e-22
-5e-05
1.12192e-22
-5e-05
-3.28624e-21
-3.57045e-21
-5e-05
-2.93552e-18
-5e-05
6.43492e-19
-5e-05
-1.51659e-19
-5e-05
3.07001e-20
-5e-05
-9.79093e-21
-5e-05
2.01183e-21
-5e-05
3.07445e-22
-5e-05
-5.93215e-23
-5e-05
1.03764e-21
-5e-05
3.8156e-21
-5e-05
2.48788e-21
-5e-05
8.20936e-22
-5e-05
-7.53209e-23
-5e-05
-1.43898e-21
-5e-05
1.22524e-21
-5e-05
3.64942e-21
-5e-05
3.47095e-21
-5e-05
1.77962e-21
-5e-05
-2.03712e-21
-1.99639e-21
-5e-05
1.13912e-18
-5e-05
-2.31955e-19
-5e-05
5.43719e-20
-5e-05
-1.61118e-20
-5e-05
-2.75929e-21
-5e-05
-1.72217e-21
-5e-05
2.81581e-21
-5e-05
1.49412e-21
-5e-05
-7.98957e-22
-5e-05
1.83044e-21
-5e-05
3.15682e-21
-5e-05
6.6578e-22
-5e-05
-3.08189e-21
-5e-05
-3.16951e-21
-5e-05
-1.08197e-21
-5e-05
2.05301e-21
-5e-05
5.42843e-21
-5e-05
4.90365e-21
-5e-05
2.77848e-21
5.78737e-22
-5e-05
2.293e-18
-5e-05
-4.96668e-19
-5e-05
1.14865e-19
-5e-05
-2.7369e-20
-5e-05
2.701e-21
-5e-05
5.3195e-22
-5e-05
5.68139e-21
-5e-05
2.0367e-21
-5e-05
-1.32127e-21
-5e-05
1.11503e-21
-5e-05
3.66284e-21
-5e-05
2.14202e-21
-5e-05
-1.4203e-21
-5e-05
-2.58099e-22
-5e-05
-1.63744e-21
-5e-05
-5.06372e-22
-5e-05
1.38943e-21
-5e-05
2.32244e-21
-5e-05
2.66325e-21
1.31298e-21
-5e-05
-3.06197e-18
-5e-05
6.52725e-19
-5e-05
-1.54744e-19
-5e-05
3.95042e-20
-5e-05
-2.99413e-21
-5e-05
3.1647e-21
-5e-05
-2.44885e-21
-5e-05
-3.44962e-21
-5e-05
-3.48396e-22
-5e-05
1.26671e-21
-5e-05
4.44621e-21
-5e-05
1.27952e-21
-5e-05
-3.77818e-21
-5e-05
-4.07329e-21
-5e-05
-6.48248e-21
-5e-05
-4.13537e-21
-5e-05
-5.50213e-22
-5e-05
1.35933e-21
-5e-05
1.21482e-21
3.89882e-22
-5e-05
1.51124e-18
-5e-05
-3.28939e-19
-5e-05
8.11973e-20
-5e-05
-1.09019e-20
-5e-05
9.84966e-21
-5e-05
-1.69353e-21
-5e-05
-4.99436e-21
-5e-05
-3.55341e-21
-5e-05
-1.092e-21
-5e-05
-1.78638e-21
-5e-05
1.16797e-21
-5e-05
1.2655e-21
-5e-05
-2.09691e-21
-5e-05
-6.65493e-21
-5e-05
-1.02804e-20
-5e-05
-5.45251e-21
-5e-05
2.1587e-21
-5e-05
4.84087e-21
-5e-05
2.76483e-21
3.81249e-22
-5e-05
2.47785e-21
-5e-05
1.10433e-20
-5e-05
8.0022e-21
-5e-05
8.7978e-22
-5e-05
2.48812e-21
-5e-05
-5.927e-22
-5e-05
-2.33496e-21
-5e-05
-2.8864e-21
-5e-05
-7.33616e-21
-5e-05
-1.10613e-20
-5e-05
-1.01074e-20
-5e-05
-1.76648e-21
-5e-05
4.06326e-21
-5e-05
4.75724e-22
-5e-05
-2.60685e-21
-5e-05
-2.42272e-21
-5e-05
-2.38619e-22
-5e-05
1.68384e-21
-5e-05
1.37547e-21
-4.76573e-22
-5e-05
-1.04053e-18
-5e-05
2.15981e-19
-5e-05
-4.67101e-20
-5e-05
9.42027e-21
-5e-05
-2.44425e-22
-5e-05
2.23124e-21
-5e-05
-2.88406e-21
-5e-05
-5.06955e-21
-5e-05
-7.03505e-21
-5e-05
-8.69026e-21
-5e-05
-9.51743e-21
-5e-05
-1.33716e-21
-5e-05
5.24302e-21
-5e-05
5.13018e-21
-5e-05
5.58258e-21
-5e-05
1.19061e-21
-5e-05
-3.44541e-21
-5e-05
-2.14465e-21
-5e-05
1.55812e-21
5.28393e-22
-5e-05
1.90908e-18
-5e-05
-4.24481e-19
-5e-05
1.01009e-19
-5e-05
-1.83242e-20
-5e-05
7.62904e-21
-5e-05
-5.52409e-22
-5e-05
-2.19134e-21
-5e-05
-2.98266e-21
-5e-05
-2.69234e-21
-5e-05
-2.45429e-21
-5e-05
-1.02529e-21
-5e-05
3.49187e-21
-5e-05
1.97349e-21
-5e-05
1.12763e-21
-5e-05
3.41686e-21
-5e-05
2.7298e-21
-5e-05
-1.95029e-21
-5e-05
-1.87606e-21
-5e-05
1.74342e-21
1.79913e-21
-5e-05
-2.25703e-18
-5e-05
5.07973e-19
-5e-05
-1.16558e-19
-5e-05
2.98988e-20
-5e-05
-5.12769e-21
-5e-05
1.40157e-21
-5e-05
-4.19643e-22
-5e-05
-4.75156e-22
-5e-05
-2.47631e-21
-5e-05
-3.11483e-21
-5e-05
1.53443e-21
-5e-05
2.45703e-21
-5e-05
-2.7366e-21
-5e-05
-3.67636e-21
-5e-05
-1.07557e-21
-5e-05
2.25275e-21
-5e-05
3.74612e-22
-5e-05
-2.5273e-21
-5e-05
-2.58052e-21
-2.11561e-21
-5e-05
1.34666e-18
-5e-05
-2.87273e-19
-5e-05
6.06368e-20
-5e-05
-1.71771e-20
-5e-05
2.96858e-21
-5e-05
3.06735e-21
-5e-05
1.39919e-22
-5e-05
-2.10948e-21
-5e-05
-1.90557e-21
-5e-05
-4.47121e-22
-5e-05
1.62953e-21
-5e-05
-2.95043e-22
-5e-05
-7.87738e-22
-5e-05
5.51993e-22
-5e-05
1.39191e-22
-5e-05
3.04925e-22
-5e-05
-2.08808e-23
-5e-05
-3.14375e-21
-5e-05
-2.50765e-21
-3.18743e-21
-5e-05
1.21467e-18
-5e-05
-2.864e-19
-5e-05
5.73821e-20
-5e-05
-2.1075e-20
-5e-05
-2.13933e-21
-5e-05
-1.51699e-21
-5e-05
8.76572e-22
-5e-05
1.7599e-22
-5e-05
1.53054e-21
-5e-05
2.19731e-21
-5e-05
-1.65498e-21
-5e-05
-7.05414e-21
-5e-05
-3.14003e-21
-5e-05
4.6678e-22
-5e-05
4.894e-22
-5e-05
-2.12784e-21
-5e-05
-2.65503e-21
-5e-05
-2.60639e-21
-5e-05
2.22183e-22
-1.57757e-21
-5e-05
-2.94578e-18
-5e-05
6.301e-19
-5e-05
-1.5199e-19
-5e-05
2.87012e-20
-5e-05
-1.68107e-20
-5e-05
-6.81434e-21
-5e-05
4.41983e-22
-5e-05
7.2044e-21
-5e-05
7.85736e-21
-5e-05
1.99415e-21
-5e-05
-5.46152e-21
-5e-05
-1.19192e-20
-5e-05
-1.11494e-20
-5e-05
-8.45121e-21
-5e-05
-3.10702e-21
-5e-05
-2.09773e-21
-5e-05
-1.34322e-21
-5e-05
-1.75795e-22
-5e-05
-8.47077e-22
-2.57734e-21
-5e-05
2.22337e-18
-5e-05
-4.76873e-19
-5e-05
1.11655e-19
-5e-05
-2.16563e-20
-5e-05
5.03136e-21
-5e-05
-5.01354e-21
-5e-05
-1.05103e-21
-5e-05
2.7086e-21
-5e-05
2.39062e-21
-5e-05
-4.65063e-21
-5e-05
-1.10096e-20
-5e-05
-1.29024e-20
-5e-05
-1.05529e-20
-5e-05
-6.71297e-21
-5e-05
-2.78144e-21
-5e-05
-1.00834e-21
-5e-05
1.36203e-21
-5e-05
2.81893e-21
-5e-05
-2.41504e-22
-9.71864e-22
-5e-05
1.77728e-18
-5e-05
-3.98488e-19
-5e-05
9.21501e-20
-5e-05
-2.00754e-20
-5e-05
1.0344e-20
-5e-05
1.26268e-21
-5e-05
-7.36051e-22
-5e-05
-5.72935e-21
-5e-05
-8.89534e-21
-5e-05
-9.1574e-21
-5e-05
-1.14295e-20
-5e-05
-1.18112e-20
-5e-05
-5.46368e-21
-5e-05
-3.7992e-22
-5e-05
-1.77922e-21
-5e-05
-1.95707e-21
-5e-05
2.70167e-21
-5e-05
3.78575e-21
-5e-05
1.33506e-21
9.85334e-22
-5e-05
-3.23696e-18
-5e-05
6.88697e-19
-5e-05
-1.66824e-19
-5e-05
2.96137e-20
-5e-05
-8.96631e-21
-5e-05
-4.78923e-22
-5e-05
-3.78353e-21
-5e-05
-5.90688e-21
-5e-05
-7.46971e-21
-5e-05
-4.41463e-21
-5e-05
-4.1868e-21
-5e-05
-4.89219e-21
-5e-05
-1.91644e-21
-5e-05
-7.93942e-22
-5e-05
-3.67341e-21
-5e-05
-3.49398e-21
-5e-05
1.01311e-21
-5e-05
1.09931e-21
-5e-05
6.80128e-22
1.72182e-22
-5e-05
-5e-05
-5e-05
-5e-05
-5e-05
-5e-05
-5e-05
-5e-05
-5e-05
-5e-05
-5e-05
-5e-05
-5e-05
-5e-05
-5e-05
-5e-05
-5e-05
-5e-05
-5e-05
)
;

boundaryField
{
    movingWall
    {
        type            calculated;
        value           uniform -0;
    }
    fixedWalls
    {
        type            calculated;
        value           nonuniform List<scalar> 
60
(
5e-05
5e-05
5e-05
5e-05
5e-05
5e-05
5e-05
5e-05
5e-05
5e-05
5e-05
5e-05
5e-05
5e-05
5e-05
5e-05
5e-05
5e-05
5e-05
5e-05
-5e-05
-5e-05
-5e-05
-5e-05
-5e-05
-5e-05
-5e-05
-5e-05
-5e-05
-5e-05
-5e-05
-5e-05
-5e-05
-5e-05
-5e-05
-5e-05
-5e-05
-5e-05
-5e-05
-5e-05
0
0
0
0
0
0
0
0
0
0
0
0
0
0
0
0
0
0
0
0
)
;
    }
    frontAndBack
    {
        type            empty;
    }
}


// ************************************************************************* //
