/*--------------------------------*- C++ -*----------------------------------*\
| =========                 |                                                 |
| \\      /  F ield         | OpenFOAM: The Open Source CFD Toolbox           |
|  \\    /   O peration     | Version:  2506                                  |
|   \\  /    A nd           | Website:  www.openfoam.com                      |
|    \\/     M anipulation  |                                                 |
\*---------------------------------------------------------------------------*/
FoamFile
{
    version     2.0;
    format      ascii;
    arch        "LSB;label=32;scalar=64";
    class       volTensorField;
    location    "6.875";
    object      gradU;
}
// * * * * * * * * * * * * * * * * * * * * * * * * * * * * * * * * * * * * * //

dimensions      [0 0 -1 0 0 0 0];

internalField   nonuniform List<tensor> 
400
(
(-9.21572e-13 1.1119e-11 0 7.86047e-13 1.46371e-11 0 0 0 0)
(1.51788e-12 -1.34314e-11 0 -2.98156e-13 -3.15269e-12 0 0 0 0)
(-4.06576e-13 2.88941e-12 0 0 7.45496e-13 0 0 0 0)
(2.71051e-14 -6.6965e-13 0 -2.71051e-14 -1.59786e-13 0 0 0 0)
(-2.71051e-14 1.56643e-13 0 5.42101e-14 6.02035e-14 0 0 0 0)
(-5.42101e-14 -3.75618e-14 0 -5.42101e-14 2.65e-14 0 0 0 0)
(-2.71051e-14 -2.40501e-15 0 2.71051e-14 1.98355e-14 0 0 0 0)
(-2.71051e-14 -1.1888e-14 0 5.42101e-14 1.58178e-14 0 0 0 0)
(-2.71051e-14 -1.96734e-14 0 5.42101e-14 4.53686e-15 0 0 0 0)
(0 -5.62045e-15 0 0 -1.06794e-14 0 0 0 0)
(2.71051e-14 1.56732e-14 0 2.71051e-14 8.28148e-15 0 0 0 0)
(-2.71051e-14 1.48434e-14 0 0 3.05148e-14 0 0 0 0)
(-2.71051e-14 5.44492e-15 0 0 3.83643e-14 0 0 0 0)
(-2.71051e-14 -5.87198e-15 0 -5.42101e-14 2.87292e-14 0 0 0 0)
(0 -1.01002e-14 0 -8.13152e-14 5.31324e-15 0 0 0 0)
(0 -3.34261e-15 0 0 -1.07314e-14 0 0 0 0)
(0 4.93757e-15 0 -5.42101e-14 -8.85727e-15 0 0 0 0)
(0 -2.48796e-15 0 0 1.25308e-15 0 0 0 0)
(0 -8.64603e-15 0 0 -3.71555e-15 0 0 0 0)
(0 2.66142e-15 0 0 -1.31532e-14 0 0 0 0)
(1.49078e-12 3.65395e-13 0 8.13152e-13 -2.70655e-11 0 0 0 0)
(-2.35814e-12 -4.60223e-13 0 -3.52366e-13 5.82316e-12 0 0 0 0)
(6.77626e-13 1.03495e-13 0 -1.35525e-13 -1.37835e-12 0 0 0 0)
(0 -1.56431e-14 0 -1.35525e-13 2.81783e-13 0 0 0 0)
(2.71051e-14 2.96429e-14 0 -2.1684e-13 -9.88065e-14 0 0 0 0)
(5.42101e-14 -2.80627e-15 0 -1.35525e-13 -2.95435e-14 0 0 0 0)
(5.42101e-14 -8.27719e-15 0 -1.0842e-13 -3.87525e-14 0 0 0 0)
(8.13152e-14 -3.41056e-15 0 -1.0842e-13 -1.65988e-14 0 0 0 0)
(0 -6.82381e-15 0 -1.0842e-13 5.58403e-15 0 0 0 0)
(-5.42101e-14 9.36506e-15 0 -5.42101e-14 2.08822e-14 0 0 0 0)
(-2.71051e-14 2.55209e-14 0 -1.0842e-13 1.10504e-14 0 0 0 0)
(0 1.52394e-14 0 -8.13152e-14 -1.6476e-15 0 0 0 0)
(0 -7.23051e-15 0 0 2.2572e-15 0 0 0 0)
(-5.42101e-14 -2.71791e-14 0 0 2.09689e-15 0 0 0 0)
(5.42101e-14 -2.93604e-14 0 0 -1.43143e-14 0 0 0 0)
(2.71051e-14 -1.08279e-14 0 0 -2.0886e-14 0 0 0 0)
(0 7.04693e-15 0 0 -1.88693e-14 0 0 0 0)
(5.42101e-14 7.62969e-15 0 -5.42101e-14 -1.93248e-14 0 0 0 0)
(-5.42101e-14 -5.7603e-15 0 0 -4.48491e-15 0 0 0 0)
(5.42101e-14 1.42074e-14 0 0 -8.20261e-15 0 0 0 0)
(-4.33681e-13 -1.01232e-11 0 -3.98444e-12 1.0353e-11 0 0 0 0)
(5.69206e-13 1.22557e-11 0 1.24683e-12 -2.21944e-12 0 0 0 0)
(-1.89735e-13 -2.65197e-12 0 5.42101e-14 5.27099e-13 0 0 0 0)
(-2.71051e-14 6.09892e-13 0 2.1684e-13 -9.88815e-14 0 0 0 0)
(-5.42101e-14 -1.54683e-13 0 1.35525e-13 1.12827e-14 0 0 0 0)
(5.42101e-14 2.24923e-14 0 1.35525e-13 -3.63815e-14 0 0 0 0)
(2.71051e-14 1.05397e-14 0 2.71051e-14 -1.96028e-14 0 0 0 0)
(0 3.24485e-14 0 0 -1.22787e-14 0 0 0 0)
(-2.71051e-14 1.78077e-14 0 5.42101e-14 2.34872e-15 0 0 0 0)
(0 -1.54042e-16 0 0 3.66462e-15 0 0 0 0)
(0 -6.85661e-15 0 2.71051e-14 -2.31258e-14 0 0 0 0)
(2.71051e-14 6.0502e-15 0 8.13152e-14 -4.60932e-14 0 0 0 0)
(5.42101e-14 9.18942e-15 0 0 -3.25428e-14 0 0 0 0)
(0 -2.24434e-14 0 5.42101e-14 -1.53524e-14 0 0 0 0)
(2.71051e-14 -3.30831e-14 0 1.0842e-13 -5.14293e-15 0 0 0 0)
(0 -7.89766e-15 0 0 1.18157e-14 0 0 0 0)
(-2.71051e-14 6.49877e-15 0 8.13152e-14 1.24818e-14 0 0 0 0)
(0 1.18964e-14 0 0 6.46257e-15 0 0 0 0)
(2.71051e-14 2.47618e-15 0 0 -9.76901e-16 0 0 0 0)
(-2.71051e-14 1.53489e-14 0 2.71051e-14 2.84233e-15 0 0 0 0)
(-1.32815e-12 8.49895e-12 0 3.30682e-12 1.16484e-11 0 0 0 0)
(1.73472e-12 -1.02861e-11 0 -8.13152e-13 -2.5287e-12 0 0 0 0)
(-4.33681e-13 2.22405e-12 0 1.35525e-13 5.88705e-13 0 0 0 0)
(8.13152e-14 -5.31459e-13 0 5.42101e-14 -1.31281e-13 0 0 0 0)
(-2.71051e-14 9.21429e-14 0 1.35525e-13 4.13924e-14 0 0 0 0)
(0 -3.36918e-14 0 1.0842e-13 2.40191e-14 0 0 0 0)
(-5.42101e-14 1.58256e-14 0 1.0842e-13 3.01709e-14 0 0 0 0)
(0 1.8541e-14 0 8.13152e-14 8.71395e-15 0 0 0 0)
(2.71051e-14 9.11952e-15 0 5.42101e-14 -2.78028e-15 0 0 0 0)
(-2.71051e-14 -1.61095e-14 0 1.0842e-13 6.87437e-16 0 0 0 0)
(2.71051e-14 -2.42369e-14 0 1.0842e-13 -1.94163e-15 0 0 0 0)
(0 5.82245e-15 0 2.71051e-14 -9.24096e-17 0 0 0 0)
(0 2.35103e-14 0 2.71051e-14 -6.89293e-15 0 0 0 0)
(0 2.20725e-16 0 2.71051e-14 -1.01926e-14 0 0 0 0)
(-2.71051e-14 -2.19222e-15 0 2.71051e-14 1.45177e-14 0 0 0 0)
(-5.42101e-14 6.79684e-15 0 -5.42101e-14 2.78163e-14 0 0 0 0)
(0 1.69377e-15 0 -2.71051e-14 1.83712e-14 0 0 0 0)
(0 -5.82903e-15 0 0 1.20579e-14 0 0 0 0)
(5.42101e-14 -9.38054e-15 0 0 -3.96761e-15 0 0 0 0)
(0 1.23419e-14 0 0 4.23171e-15 0 0 0 0)
(2.00577e-12 -1.00354e-12 0 -3.79471e-13 -2.13152e-11 0 0 0 0)
(-2.57498e-12 1.196e-12 0 5.42101e-14 4.65163e-12 0 0 0 0)
(6.77626e-13 -2.54558e-13 0 -2.71051e-14 -1.08959e-12 0 0 0 0)
(-8.13152e-14 6.25793e-14 0 -8.13152e-14 2.30966e-13 0 0 0 0)
(5.42101e-14 6.16888e-16 0 -8.13152e-14 -5.32358e-14 0 0 0 0)
(-2.71051e-14 1.12708e-14 0 -5.42101e-14 2.34532e-14 0 0 0 0)
(2.71051e-14 -4.76547e-15 0 -2.71051e-14 9.5787e-15 0 0 0 0)
(0 -5.02698e-16 0 0 4.10849e-15 0 0 0 0)
(-2.71051e-14 9.7812e-15 0 -5.42101e-14 -5.53877e-15 0 0 0 0)
(0 6.84608e-16 0 -2.71051e-14 7.0745e-16 0 0 0 0)
(-2.71051e-14 -7.63645e-15 0 0 1.5687e-14 0 0 0 0)
(-5.42101e-14 1.0989e-15 0 -2.71051e-14 2.06022e-14 0 0 0 0)
(2.71051e-14 -9.1078e-16 0 -2.71051e-14 -1.48712e-15 0 0 0 0)
(0 -1.03283e-15 0 0 -1.1037e-14 0 0 0 0)
(-2.71051e-14 4.92573e-15 0 -2.71051e-14 4.52725e-15 0 0 0 0)
(0 -4.0441e-15 0 1.0842e-13 6.58311e-15 0 0 0 0)
(0 -9.25956e-15 0 5.42101e-14 1.07573e-14 0 0 0 0)
(0 -1.04424e-14 0 8.13152e-14 6.66973e-15 0 0 0 0)
(2.71051e-14 -5.35004e-15 0 0 4.9965e-15 0 0 0 0)
(-2.71051e-14 1.50848e-14 0 0 6.29623e-15 0 0 0 0)
(-1.68051e-12 -8.16458e-12 0 -2.49366e-12 1.62986e-11 0 0 0 0)
(2.08709e-12 9.93945e-12 0 6.77626e-13 -3.50179e-12 0 0 0 0)
(-4.87891e-13 -2.19661e-12 0 -2.71051e-14 8.24125e-13 0 0 0 0)
(2.71051e-14 5.04895e-13 0 0 -1.87248e-13 0 0 0 0)
(-2.71051e-14 -1.1537e-13 0 0 2.81266e-14 0 0 0 0)
(2.71051e-14 2.91227e-14 0 0 -1.4936e-14 0 0 0 0)
(0 -3.51914e-15 0 -2.71051e-14 1.00335e-14 0 0 0 0)
(0 3.42349e-15 0 -2.71051e-14 6.21376e-15 0 0 0 0)
(-2.71051e-14 5.71848e-15 0 -5.42101e-14 -7.3464e-15 0 0 0 0)
(8.13152e-14 5.11632e-15 0 -2.71051e-14 -7.94064e-15 0 0 0 0)
(2.71051e-14 -4.3422e-15 0 -2.71051e-14 2.67577e-15 0 0 0 0)
(-2.71051e-14 -1.13517e-14 0 2.71051e-14 -6.20621e-16 0 0 0 0)
(0 -8.12889e-15 0 2.71051e-14 -1.20263e-14 0 0 0 0)
(0 6.23509e-15 0 -2.71051e-14 -6.92211e-15 0 0 0 0)
(5.42101e-14 1.54279e-14 0 0 -9.22886e-15 0 0 0 0)
(2.71051e-14 1.30269e-14 0 -5.42101e-14 -6.38562e-15 0 0 0 0)
(-2.71051e-14 1.78039e-15 0 -2.71051e-14 7.82991e-15 0 0 0 0)
(-2.71051e-14 -1.15899e-14 0 0 1.24961e-14 0 0 0 0)
(-2.71051e-14 -9.75403e-15 0 0 1.92624e-14 0 0 0 0)
(0 1.04921e-15 0 -2.71051e-14 1.03005e-14 0 0 0 0)
(2.71051e-13 1.17932e-11 0 2.90024e-12 4.61552e-12 0 0 0 0)
(-1.35525e-13 -1.42784e-11 0 -8.40257e-13 -1.05885e-12 0 0 0 0)
(-2.71051e-14 3.05998e-12 0 -5.42101e-14 2.41973e-13 0 0 0 0)
(-5.42101e-14 -7.33419e-13 0 -5.42101e-14 -4.50286e-14 0 0 0 0)
(2.71051e-14 1.72929e-13 0 -8.13152e-14 2.18412e-14 0 0 0 0)
(0 -6.82233e-15 0 -5.42101e-14 9.01647e-15 0 0 0 0)
(-2.71051e-14 1.63843e-14 0 -5.42101e-14 1.14623e-14 0 0 0 0)
(-2.71051e-14 -1.78826e-14 0 0 2.17032e-15 0 0 0 0)
(2.71051e-14 -4.37319e-15 0 0 -2.08927e-15 0 0 0 0)
(-2.71051e-14 1.07068e-14 0 -5.42101e-14 -2.86164e-15 0 0 0 0)
(0 -3.16439e-16 0 -8.13152e-14 2.02407e-15 0 0 0 0)
(-2.71051e-14 -1.36031e-14 0 -8.13152e-14 5.90494e-15 0 0 0 0)
(0 -7.21227e-15 0 -1.0842e-13 6.64636e-15 0 0 0 0)
(0 1.76459e-15 0 -5.42101e-14 1.16456e-14 0 0 0 0)
(-5.42101e-14 5.46222e-15 0 -8.13152e-14 -2.22187e-15 0 0 0 0)
(-2.71051e-14 1.30147e-14 0 -5.42101e-14 -1.02375e-14 0 0 0 0)
(2.71051e-14 9.62218e-15 0 -8.13152e-14 -1.6156e-14 0 0 0 0)
(5.42101e-14 9.90072e-16 0 -8.13152e-14 -1.03248e-14 0 0 0 0)
(2.71051e-14 -7.54563e-15 0 -5.42101e-14 -4.60934e-16 0 0 0 0)
(-2.71051e-14 -1.44781e-14 0 2.71051e-14 2.93696e-15 0 0 0 0)
(3.79471e-13 -4.60791e-12 0 -8.40257e-13 -2.14199e-11 0 0 0 0)
(-9.21572e-13 5.5659e-12 0 2.43945e-13 4.59757e-12 0 0 0 0)
(3.52366e-13 -1.18279e-12 0 -2.71051e-14 -1.07844e-12 0 0 0 0)
(5.42101e-14 2.84763e-13 0 0 2.67492e-13 0 0 0 0)
(-5.42101e-14 -6.1325e-14 0 -5.42101e-14 -2.27805e-14 0 0 0 0)
(0 1.87439e-14 0 -2.71051e-14 1.0531e-14 0 0 0 0)
(5.42101e-14 -1.03653e-14 0 0 -3.25209e-14 0 0 0 0)
(5.42101e-14 -1.01281e-14 0 0 -2.19453e-14 0 0 0 0)
(-5.42101e-14 6.86519e-16 0 0 3.89151e-15 0 0 0 0)
(5.42101e-14 9.22966e-15 0 0 6.06741e-16 0 0 0 0)
(0 4.42438e-15 0 0 3.13351e-15 0 0 0 0)
(-5.42101e-14 -6.7294e-15 0 5.42101e-14 -3.44997e-15 0 0 0 0)
(5.42101e-14 -2.38819e-15 0 8.13152e-14 -9.43153e-15 0 0 0 0)
(2.71051e-14 -2.63313e-15 0 5.42101e-14 -1.52608e-14 0 0 0 0)
(5.42101e-14 -6.45531e-15 0 5.42101e-14 -1.93802e-14 0 0 0 0)
(0 -9.07205e-16 0 1.0842e-13 -1.4516e-14 0 0 0 0)
(0 1.69307e-15 0 8.13152e-14 -7.75857e-15 0 0 0 0)
(-5.42101e-14 4.1052e-15 0 5.42101e-14 -3.85243e-15 0 0 0 0)
(5.42101e-14 3.50777e-15 0 5.42101e-14 -5.79372e-15 0 0 0 0)
(0 -1.42681e-15 0 -2.71051e-14 -3.69238e-15 0 0 0 0)
(-2.98156e-13 -5.02906e-12 0 -8.94467e-13 1.82928e-11 0 0 0 0)
(7.04731e-13 6.06299e-12 0 3.52366e-13 -3.92666e-12 0 0 0 0)
(-3.52366e-13 -1.27009e-12 0 1.0842e-13 9.43767e-13 0 0 0 0)
(-5.42101e-14 3.22238e-13 0 5.42101e-14 -2.01624e-13 0 0 0 0)
(0 -8.40328e-14 0 8.13152e-14 5.13752e-14 0 0 0 0)
(2.71051e-14 -1.65627e-14 0 8.13152e-14 -1.94329e-14 0 0 0 0)
(2.71051e-14 -1.6092e-14 0 5.42101e-14 -1.0182e-14 0 0 0 0)
(0 1.85299e-14 0 -5.42101e-14 -4.15176e-16 0 0 0 0)
(0 1.81788e-14 0 0 -2.97442e-15 0 0 0 0)
(0 9.94878e-15 0 0 -1.22124e-14 0 0 0 0)
(2.71051e-14 -4.37315e-15 0 1.0842e-13 -1.3113e-14 0 0 0 0)
(0 -2.61682e-14 0 5.42101e-14 -5.60896e-17 0 0 0 0)
(-2.71051e-14 -1.90231e-14 0 5.42101e-14 6.72508e-15 0 0 0 0)
(0 -8.18406e-15 0 2.71051e-14 -1.03266e-14 0 0 0 0)
(0 6.20699e-15 0 0 -1.51918e-14 0 0 0 0)
(0 2.46363e-14 0 -2.71051e-14 -5.26855e-15 0 0 0 0)
(0 2.02858e-14 0 0 1.08356e-14 0 0 0 0)
(0 2.95492e-15 0 5.42101e-14 1.39261e-14 0 0 0 0)
(-2.71051e-14 -7.38558e-15 0 0 6.20004e-15 0 0 0 0)
(-2.71051e-14 -4.99198e-15 0 0 -3.45307e-17 0 0 0 0)
(-1.89735e-13 9.75826e-12 0 4.33681e-13 -6.03504e-12 0 0 0 0)
(1.0842e-13 -1.17832e-11 0 -3.79471e-13 1.35993e-12 0 0 0 0)
(0 2.54224e-12 0 -1.0842e-13 -2.9278e-13 0 0 0 0)
(2.71051e-14 -6.07629e-13 0 0 4.71268e-14 0 0 0 0)
(0 1.20866e-13 0 5.42101e-14 -2.94462e-14 0 0 0 0)
(0 -4.28133e-14 0 0 4.40331e-15 0 0 0 0)
(-2.71051e-14 8.65246e-15 0 2.71051e-14 1.06376e-14 0 0 0 0)
(-5.42101e-14 -2.92046e-15 0 0 2.66806e-15 0 0 0 0)
(5.42101e-14 -1.11107e-14 0 8.13152e-14 -2.49766e-14 0 0 0 0)
(2.71051e-14 -9.08912e-16 0 0 -3.70997e-14 0 0 0 0)
(8.13152e-14 1.65807e-14 0 -2.71051e-14 -4.51015e-14 0 0 0 0)
(0 1.31087e-14 0 -5.42101e-14 -1.21279e-14 0 0 0 0)
(-2.71051e-14 -1.26587e-14 0 -2.71051e-14 2.46407e-14 0 0 0 0)
(0 -2.455e-14 0 0 2.85226e-14 0 0 0 0)
(0 -1.3973e-15 0 0 3.06943e-14 0 0 0 0)
(0 2.51203e-14 0 -1.0842e-13 1.21192e-14 0 0 0 0)
(0 2.08878e-14 0 -8.13152e-14 -9.58927e-15 0 0 0 0)
(-5.42101e-14 -5.30401e-16 0 -5.42101e-14 -1.26281e-14 0 0 0 0)
(5.42101e-14 -1.04529e-14 0 0 -5.55742e-15 0 0 0 0)
(0 -7.59232e-15 0 0 -3.43129e-15 0 0 0 0)
(-2.71051e-13 -9.70417e-12 0 7.31836e-13 -4.17203e-12 0 0 0 0)
(1.89735e-13 1.18052e-11 0 1.0842e-13 8.19749e-13 0 0 0 0)
(2.71051e-14 -2.5829e-12 0 1.89735e-13 -2.18849e-13 0 0 0 0)
(1.0842e-13 5.85573e-13 0 8.13152e-14 3.4162e-14 0 0 0 0)
(0 -1.26756e-13 0 8.13152e-14 -1.09302e-14 0 0 0 0)
(0 2.3521e-14 0 5.42101e-14 1.12958e-14 0 0 0 0)
(2.71051e-14 -1.78273e-14 0 5.42101e-14 -2.19643e-15 0 0 0 0)
(2.71051e-14 -1.70843e-14 0 1.0842e-13 -8.73261e-15 0 0 0 0)
(-2.71051e-14 -2.15889e-14 0 8.13152e-14 1.20443e-15 0 0 0 0)
(-2.71051e-14 -1.01761e-14 0 1.0842e-13 9.48418e-15 0 0 0 0)
(-2.71051e-14 2.05986e-14 0 0 2.35996e-15 0 0 0 0)
(0 4.35741e-14 0 0 1.71729e-15 0 0 0 0)
(0 2.16275e-14 0 -2.71051e-14 4.71902e-15 0 0 0 0)
(0 -2.13043e-15 0 0 1.86178e-14 0 0 0 0)
(-8.13152e-14 -1.01965e-14 0 0 3.27577e-14 0 0 0 0)
(-2.71051e-14 -1.56473e-14 0 8.13152e-14 1.44533e-14 0 0 0 0)
(2.71051e-14 -4.46155e-15 0 5.42101e-14 -1.28272e-14 0 0 0 0)
(5.42101e-14 6.98676e-15 0 0 -1.53139e-14 0 0 0 0)
(0 1.81127e-15 0 2.71051e-14 7.30606e-16 0 0 0 0)
(0 3.99673e-15 0 2.71051e-14 4.01986e-15 0 0 0 0)
(6.77626e-13 6.40598e-12 0 3.52366e-13 1.17984e-11 0 0 0 0)
(-4.33681e-13 -7.82997e-12 0 -2.43945e-13 -2.56184e-12 0 0 0 0)
(-2.71051e-14 1.75665e-12 0 -8.13152e-14 5.90877e-13 0 0 0 0)
(-1.0842e-13 -3.9971e-13 0 -8.13152e-14 -1.10978e-13 0 0 0 0)
(0 9.80002e-14 0 -8.13152e-14 3.14939e-14 0 0 0 0)
(0 -3.40796e-14 0 -5.42101e-14 -1.11346e-14 0 0 0 0)
(-2.71051e-14 -1.13759e-14 0 -5.42101e-14 2.77088e-15 0 0 0 0)
(-2.71051e-14 4.80398e-16 0 -5.42101e-14 8.34758e-15 0 0 0 0)
(0 7.10609e-15 0 -1.6263e-13 1.73708e-14 0 0 0 0)
(-2.71051e-14 2.46624e-16 0 -1.0842e-13 2.49439e-14 0 0 0 0)
(-2.71051e-14 8.8138e-15 0 -8.13152e-14 3.39686e-14 0 0 0 0)
(-5.42101e-14 1.54677e-14 0 -8.13152e-14 1.93161e-14 0 0 0 0)
(5.42101e-14 4.24185e-15 0 -8.13152e-14 -1.30781e-14 0 0 0 0)
(0 3.48868e-15 0 -8.13152e-14 -1.60102e-14 0 0 0 0)
(5.42101e-14 -5.5618e-15 0 -5.42101e-14 -8.66288e-15 0 0 0 0)
(0 -2.04646e-14 0 0 6.15676e-15 0 0 0 0)
(0 -8.87949e-15 0 0 5.98048e-15 0 0 0 0)
(0 1.30274e-14 0 0 1.07435e-15 0 0 0 0)
(-2.71051e-14 8.88091e-15 0 -2.71051e-14 7.41197e-16 0 0 0 0)
(-2.71051e-14 -1.23428e-14 0 -2.71051e-14 5.08295e-15 0 0 0 0)
(-1.89735e-13 -4.67577e-13 0 -7.86047e-13 -1.66644e-11 0 0 0 0)
(-2.43945e-13 5.97686e-13 0 8.13152e-14 3.72982e-12 0 0 0 0)
(2.43945e-13 -1.32029e-13 0 -1.0842e-13 -8.7027e-13 0 0 0 0)
(5.42101e-14 2.61891e-14 0 -5.42101e-14 1.92892e-13 0 0 0 0)
(0 -2.6913e-14 0 -5.42101e-14 -5.10269e-14 0 0 0 0)
(5.42101e-14 -5.20194e-15 0 0 7.81591e-15 0 0 0 0)
(0 1.65493e-15 0 -2.71051e-14 7.0868e-15 0 0 0 0)
(0 -2.48438e-15 0 -5.42101e-14 1.003e-14 0 0 0 0)
(-5.42101e-14 -4.99262e-15 0 0 8.64114e-16 0 0 0 0)
(0 6.42158e-15 0 0 -2.64215e-15 0 0 0 0)
(0 1.49709e-14 0 0 1.02389e-14 0 0 0 0)
(5.42101e-14 -3.47259e-15 0 2.71051e-14 -4.13939e-15 0 0 0 0)
(0 -1.36988e-14 0 8.13152e-14 -1.88404e-14 0 0 0 0)
(0 2.28478e-15 0 0 -1.92159e-14 0 0 0 0)
(0 1.19705e-14 0 5.42101e-14 -1.79697e-14 0 0 0 0)
(0 -1.00396e-15 0 0 -1.9082e-15 0 0 0 0)
(0 -9.54396e-15 0 0 9.29961e-15 0 0 0 0)
(2.71051e-14 1.74748e-15 0 0 -2.60495e-15 0 0 0 0)
(0 5.81987e-15 0 0 -1.72958e-14 0 0 0 0)
(5.42101e-14 -1.82742e-15 0 0 -1.5659e-14 0 0 0 0)
(0 -6.52865e-12 0 -1.54499e-12 1.44148e-11 0 0 0 0)
(2.43945e-13 7.9642e-12 0 4.87891e-13 -3.18099e-12 0 0 0 0)
(-1.35525e-13 -1.78027e-12 0 2.71051e-14 7.08781e-13 0 0 0 0)
(-5.42101e-14 4.19534e-13 0 0 -1.88303e-13 0 0 0 0)
(2.71051e-14 -8.70757e-14 0 5.42101e-14 3.23851e-14 0 0 0 0)
(-2.71051e-14 2.40341e-14 0 5.42101e-14 6.66313e-15 0 0 0 0)
(0 -9.16183e-15 0 0 2.23825e-15 0 0 0 0)
(0 -5.74229e-15 0 5.42101e-14 -6.53729e-15 0 0 0 0)
(0 -5.56606e-15 0 8.13152e-14 2.28296e-15 0 0 0 0)
(0 9.6214e-15 0 5.42101e-14 1.06708e-14 0 0 0 0)
(0 7.31657e-15 0 5.42101e-14 3.80375e-16 0 0 0 0)
(0 -1.36116e-14 0 5.42101e-14 -1.10083e-14 0 0 0 0)
(-2.71051e-14 -1.08347e-14 0 5.42101e-14 7.79546e-15 0 0 0 0)
(0 4.35937e-15 0 5.42101e-14 1.69134e-14 0 0 0 0)
(2.71051e-14 1.17459e-14 0 2.71051e-14 4.85903e-15 0 0 0 0)
(2.71051e-14 6.80467e-15 0 0 -7.79129e-15 0 0 0 0)
(-2.71051e-14 -9.57623e-15 0 5.42101e-14 -1.58197e-15 0 0 0 0)
(-2.71051e-14 -1.3568e-14 0 2.71051e-14 -2.46581e-15 0 0 0 0)
(0 -4.17312e-15 0 0 2.9149e-16 0 0 0 0)
(-2.71051e-14 2.0612e-14 0 2.71051e-14 -4.28728e-15 0 0 0 0)
(-1.19262e-12 1.07662e-11 0 2.38524e-12 -5.27956e-13 0 0 0 0)
(1.24683e-12 -1.31083e-11 0 -7.04731e-13 3.49182e-15 0 0 0 0)
(-2.71051e-13 2.86065e-12 0 -8.13152e-14 -1.3019e-14 0 0 0 0)
(1.35525e-13 -6.50207e-13 0 -2.71051e-14 -1.55918e-14 0 0 0 0)
(0 1.68053e-13 0 -8.13152e-14 -2.04316e-14 0 0 0 0)
(8.13152e-14 -3.53487e-14 0 -5.42101e-14 -1.83374e-14 0 0 0 0)
(-5.42101e-14 -1.15455e-14 0 0 2.94661e-15 0 0 0 0)
(0 -2.43967e-15 0 0 9.14188e-15 0 0 0 0)
(0 1.22155e-14 0 -8.13152e-14 1.37445e-14 0 0 0 0)
(-2.71051e-14 4.519e-15 0 -8.13152e-14 1.05777e-14 0 0 0 0)
(0 -6.70825e-15 0 -8.13152e-14 -1.3138e-14 0 0 0 0)
(8.13152e-14 3.94249e-15 0 -8.13152e-14 -2.70364e-14 0 0 0 0)
(0 1.42229e-14 0 -1.0842e-13 -9.40918e-15 0 0 0 0)
(0 -6.5165e-16 0 0 -3.40853e-16 0 0 0 0)
(-5.42101e-14 -1.27342e-14 0 -2.71051e-14 1.40084e-15 0 0 0 0)
(0 -7.44496e-15 0 -5.42101e-14 -9.73105e-15 0 0 0 0)
(5.42101e-14 -4.21847e-15 0 -5.42101e-14 -1.05366e-14 0 0 0 0)
(2.71051e-14 3.62094e-15 0 -2.71051e-14 2.14945e-15 0 0 0 0)
(0 3.9984e-15 0 0 1.09193e-14 0 0 0 0)
(-2.71051e-14 2.16836e-15 0 -2.71051e-14 6.43947e-15 0 0 0 0)
(1.65341e-12 -7.05312e-12 0 -5.96311e-13 -1.66418e-11 0 0 0 0)
(-2.1413e-12 8.47914e-12 0 3.79471e-13 3.666e-12 0 0 0 0)
(4.87891e-13 -1.79935e-12 0 1.6263e-13 -8.3749e-13 0 0 0 0)
(-8.13152e-14 4.12121e-13 0 2.71051e-14 1.99105e-13 0 0 0 0)
(0 -8.98213e-14 0 2.71051e-14 -5.86853e-14 0 0 0 0)
(8.13152e-14 4.74124e-14 0 -8.13152e-14 -2.11894e-14 0 0 0 0)
(0 1.83174e-14 0 -5.42101e-14 -1.73835e-15 0 0 0 0)
(-5.42101e-14 5.05556e-15 0 0 2.81136e-14 0 0 0 0)
(-2.71051e-14 -4.13021e-15 0 5.42101e-14 2.53072e-14 0 0 0 0)
(0 -1.72611e-14 0 2.71051e-14 -8.12644e-16 0 0 0 0)
(0 -3.02975e-14 0 2.71051e-14 -1.52262e-14 0 0 0 0)
(0 -9.8827e-15 0 8.13152e-14 -1.94601e-14 0 0 0 0)
(0 1.58608e-14 0 5.42101e-14 -3.20373e-14 0 0 0 0)
(8.13152e-14 1.51694e-14 0 2.71051e-14 -3.5672e-14 0 0 0 0)
(2.71051e-14 2.35575e-15 0 0 -1.43857e-14 0 0 0 0)
(0 -5.13278e-15 0 8.13152e-14 1.2043e-16 0 0 0 0)
(-2.71051e-14 2.30426e-15 0 0 5.24724e-15 0 0 0 0)
(-5.42101e-14 7.88793e-15 0 2.71051e-14 9.72237e-15 0 0 0 0)
(5.42101e-14 1.16891e-16 0 0 -4.27704e-15 0 0 0 0)
(0 3.25317e-15 0 0 -3.99912e-15 0 0 0 0)
(-1.40946e-12 -2.20961e-12 0 -3.03577e-12 2.06766e-11 0 0 0 0)
(1.95156e-12 2.69603e-12 0 7.31836e-13 -4.42789e-12 0 0 0 0)
(-5.42101e-13 -6.06242e-13 0 -1.6263e-13 1.05458e-12 0 0 0 0)
(2.71051e-14 1.28598e-13 0 8.13152e-14 -2.0143e-13 0 0 0 0)
(-8.13152e-14 -5.22408e-14 0 8.13152e-14 8.73681e-14 0 0 0 0)
(-2.71051e-14 2.15982e-14 0 0 7.20322e-15 0 0 0 0)
(0 3.77576e-14 0 0 -5.97207e-15 0 0 0 0)
(8.13152e-14 2.46059e-14 0 -5.42101e-14 -1.79832e-14 0 0 0 0)
(0 -1.67108e-14 0 0 -2.18669e-14 0 0 0 0)
(0 -3.60144e-14 0 8.13152e-14 -2.65791e-14 0 0 0 0)
(5.42101e-14 -2.53557e-14 0 8.13152e-14 -2.21925e-14 0 0 0 0)
(0 -1.28686e-14 0 5.42101e-14 -3.93277e-15 0 0 0 0)
(0 -1.98898e-15 0 5.42101e-14 2.38589e-15 0 0 0 0)
(-2.71051e-14 1.69999e-14 0 2.71051e-14 6.95295e-15 0 0 0 0)
(-2.71051e-14 2.30582e-14 0 2.71051e-14 1.30233e-15 0 0 0 0)
(0 1.2188e-14 0 0 4.35755e-15 0 0 0 0)
(2.71051e-14 5.38347e-15 0 0 1.0821e-14 0 0 0 0)
(2.71051e-14 -5.90334e-15 0 2.71051e-14 1.19789e-14 0 0 0 0)
(-2.71051e-14 -9.72309e-15 0 2.71051e-14 2.42229e-15 0 0 0 0)
(-2.71051e-14 1.04445e-14 0 0 6.42192e-15 0 0 0 0)
(-6.77626e-13 9.19559e-12 0 5.23128e-12 -1.78435e-12 0 0 0 0)
(7.31836e-13 -1.11429e-11 0 -1.38236e-12 3.13539e-13 0 0 0 0)
(-1.35525e-13 2.42711e-12 0 1.35525e-13 -7.80184e-14 0 0 0 0)
(1.0842e-13 -5.55091e-13 0 -8.13152e-14 6.32367e-15 0 0 0 0)
(-2.71051e-14 1.18812e-13 0 -2.71051e-14 2.12505e-14 0 0 0 0)
(0 -4.59278e-14 0 8.13152e-14 2.51049e-14 0 0 0 0)
(-5.42101e-14 -6.86901e-15 0 8.13152e-14 1.25993e-15 0 0 0 0)
(0 -1.08393e-14 0 5.42101e-14 -3.37518e-14 0 0 0 0)
(8.13152e-14 -1.27261e-14 0 2.71051e-14 -4.51438e-14 0 0 0 0)
(2.71051e-14 -1.75866e-14 0 2.71051e-14 -1.80271e-14 0 0 0 0)
(0 -7.6512e-15 0 2.71051e-14 -1.67965e-15 0 0 0 0)
(0 1.46956e-14 0 -2.71051e-14 4.36452e-15 0 0 0 0)
(0 2.67465e-14 0 -1.0842e-13 2.03568e-14 0 0 0 0)
(0 1.40858e-14 0 -5.42101e-14 2.53322e-14 0 0 0 0)
(0 -2.39645e-16 0 -2.71051e-14 4.00887e-15 0 0 0 0)
(0 4.38592e-15 0 -2.71051e-14 -3.79491e-15 0 0 0 0)
(-2.71051e-14 9.92562e-15 0 0 5.35855e-15 0 0 0 0)
(-2.71051e-14 -5.10808e-16 0 -5.42101e-14 3.86729e-15 0 0 0 0)
(2.71051e-14 -5.44009e-15 0 -2.71051e-14 6.30627e-15 0 0 0 0)
(-2.71051e-14 -5.59105e-15 0 0 7.82879e-15 0 0 0 0)
(2.41235e-12 -3.68042e-12 0 -5.96311e-13 -2.00569e-11 0 0 0 0)
(-3.11708e-12 4.40236e-12 0 2.71051e-13 4.34874e-12 0 0 0 0)
(7.31836e-13 -9.13457e-13 0 1.6263e-13 -1.0359e-12 0 0 0 0)
(-8.13152e-14 2.27867e-13 0 8.13152e-14 1.98756e-13 0 0 0 0)
(5.42101e-14 -3.34596e-14 0 5.42101e-14 -7.72412e-14 0 0 0 0)
(0 1.60764e-15 0 5.42101e-14 -6.96642e-15 0 0 0 0)
(5.42101e-14 -2.10991e-14 0 2.71051e-14 -1.21899e-14 0 0 0 0)
(0 -2.17978e-14 0 8.13152e-14 -7.10085e-16 0 0 0 0)
(-2.71051e-14 -9.86062e-16 0 2.71051e-14 5.70249e-15 0 0 0 0)
(0 7.44975e-15 0 -2.71051e-14 1.89711e-14 0 0 0 0)
(-2.71051e-14 -2.96411e-15 0 0 2.8971e-14 0 0 0 0)
(-5.42101e-14 9.16781e-15 0 -2.71051e-14 2.76762e-14 0 0 0 0)
(-2.71051e-14 1.89787e-14 0 0 1.4189e-14 0 0 0 0)
(2.71051e-14 6.52016e-16 0 0 -1.65609e-15 0 0 0 0)
(0 -6.06896e-15 0 0 -7.57675e-15 0 0 0 0)
(0 1.35377e-14 0 0 -6.14764e-15 0 0 0 0)
(0 1.30457e-14 0 0 -6.75424e-15 0 0 0 0)
(5.42101e-14 -4.95562e-15 0 0 -1.07458e-14 0 0 0 0)
(0 -5.76159e-15 0 2.71051e-14 -2.61975e-15 0 0 0 0)
(0 -3.69054e-15 0 0 -3.25261e-15 0 0 0 0)
(-9.75782e-13 -6.51261e-12 0 -1.78893e-12 1.29478e-11 0 0 0 0)
(1.46367e-12 7.87817e-12 0 3.52366e-13 -2.75479e-12 0 0 0 0)
(-3.52366e-13 -1.72287e-12 0 -1.6263e-13 6.67296e-13 0 0 0 0)
(0 4.03564e-13 0 -2.71051e-14 -1.18455e-13 0 0 0 0)
(-2.71051e-14 -8.69108e-14 0 -5.42101e-14 3.58652e-14 0 0 0 0)
(0 1.91235e-14 0 -5.42101e-14 1.91569e-15 0 0 0 0)
(-2.71051e-14 -6.1267e-16 0 -5.42101e-14 1.51341e-14 0 0 0 0)
(0 7.05309e-15 0 -8.13152e-14 2.36275e-14 0 0 0 0)
(-2.71051e-14 6.95506e-15 0 -5.42101e-14 2.98789e-14 0 0 0 0)
(0 5.68189e-15 0 -2.71051e-14 1.76585e-14 0 0 0 0)
(0 1.05388e-15 0 -5.42101e-14 1.67472e-14 0 0 0 0)
(-5.42101e-14 -8.6353e-17 0 0 1.95687e-14 0 0 0 0)
(0 -2.58573e-15 0 5.42101e-14 7.66575e-15 0 0 0 0)
(2.71051e-14 -7.67992e-15 0 0 3.17577e-15 0 0 0 0)
(0 -4.73119e-15 0 0 1.46936e-14 0 0 0 0)
(-2.71051e-14 5.20843e-15 0 0 1.39759e-14 0 0 0 0)
(0 5.32749e-15 0 0 -4.05244e-15 0 0 0 0)
(2.71051e-14 3.62369e-15 0 0 -4.39725e-15 0 0 0 0)
(-2.71051e-14 2.05307e-15 0 -2.71051e-14 -2.72051e-15 0 0 0 0)
(0 2.81303e-16 0 0 -6.88729e-16 0 0 0 0)
)
;

boundaryField
{
    movingWall
    {
        type            extrapolatedCalculated;
        value           nonuniform List<tensor> 
20
(
(-9.75782e-13 -6.51261e-12 0 5.68434e-12 3.3257e-11 0 0 0 0)
(1.46367e-12 7.87817e-12 0 -1.73195e-12 -7.20652e-12 0 0 0 0)
(-3.52366e-13 -1.72287e-12 0 -2.66454e-13 1.7443e-12 0 0 0 0)
(0 4.03564e-13 0 -3.10862e-13 -3.15021e-13 0 0 0 0)
(-2.71051e-14 -8.69108e-14 0 -2.22045e-13 1.3004e-13 0 0 0 0)
(0 1.91235e-14 0 -2.22045e-13 3.26223e-14 0 0 0 0)
(-2.71051e-14 -6.1267e-16 0 -1.77636e-13 5.35459e-14 0 0 0 0)
(0 7.05309e-15 0 -2.22045e-13 3.50729e-14 0 0 0 0)
(-2.71051e-14 6.95506e-15 0 -1.77636e-13 2.53335e-14 0 0 0 0)
(0 5.68189e-15 0 -4.44089e-14 7.25272e-15 0 0 0 0)
(0 1.05388e-15 0 -1.33227e-13 2.60596e-15 0 0 0 0)
(-5.42101e-14 -8.6353e-17 0 0 3.03719e-15 0 0 0 0)
(0 -2.58573e-15 0 -4.44089e-14 2.95137e-15 0 0 0 0)
(2.71051e-14 -7.67992e-15 0 0 1.33801e-14 0 0 0 0)
(0 -4.73119e-15 0 -8.88178e-14 3.3671e-14 0 0 0 0)
(-2.71051e-14 5.20843e-15 0 0 3.23049e-14 0 0 0 0)
(0 5.32749e-15 0 0 1.28373e-14 0 0 0 0)
(2.71051e-14 3.62369e-15 0 0 1.09949e-14 0 0 0 0)
(-2.71051e-14 2.05307e-15 0 -4.44089e-14 -1.65745e-15 0 0 0 0)
(0 2.81303e-16 0 0 2.78266e-15 0 0 0 0)
)
;
    }
    fixedWalls
    {
        type            extrapolatedCalculated;
        value           nonuniform List<tensor> 
60
(
(-5.77316e-12 5.66111e-11 0 7.86047e-13 1.46371e-11 0 0 0 0)
(8.92619e-12 1.93742e-12 0 8.13152e-13 -2.70655e-11 0 0 0 0)
(-2.4869e-12 -5.16507e-11 0 -3.98444e-12 1.0353e-11 0 0 0 0)
(-7.01661e-12 4.33494e-11 0 3.30682e-12 1.16484e-11 0 0 0 0)
(1.0747e-11 -5.05711e-12 0 -3.79471e-13 -2.13152e-11 0 0 0 0)
(-8.61533e-12 -4.19112e-11 0 -2.49366e-12 1.62986e-11 0 0 0 0)
(8.43769e-13 6.01372e-11 0 2.90024e-12 4.61552e-12 0 0 0 0)
(2.9754e-12 -2.34491e-11 0 -8.40257e-13 -2.14199e-11 0 0 0 0)
(-2.57572e-12 -2.55423e-11 0 -8.94467e-13 1.82928e-11 0 0 0 0)
(-5.32907e-13 4.97221e-11 0 4.33681e-13 -6.03504e-12 0 0 0 0)
(-8.88178e-13 -4.96825e-11 0 7.31836e-13 -4.17203e-12 0 0 0 0)
(2.39808e-12 3.3034e-11 0 3.52366e-13 1.17984e-11 0 0 0 0)
(5.32907e-13 -2.48872e-12 0 -7.86047e-13 -1.66644e-11 0 0 0 0)
(-7.10543e-13 -3.36238e-11 0 -1.54499e-12 1.44148e-11 0 0 0 0)
(-5.59552e-12 5.51703e-11 0 2.38524e-12 -5.27956e-13 0 0 0 0)
(8.74856e-12 -3.57356e-11 0 -5.96311e-13 -1.66418e-11 0 0 0 0)
(-7.99361e-12 -1.13969e-11 0 -3.03577e-12 2.06766e-11 0 0 0 0)
(-3.37508e-12 4.69708e-11 0 5.23128e-12 -1.78435e-12 0 0 0 0)
(1.28786e-11 -1.85343e-11 0 -5.96311e-13 -2.00569e-11 0 0 0 0)
(-5.68434e-12 -3.3257e-11 0 -1.78893e-12 1.29478e-11 0 0 0 0)
(0 9.7877e-15 0 0 -1.31532e-14 0 0 0 0)
(8.88178e-14 4.28253e-14 0 0 -8.20261e-15 0 0 0 0)
(-4.44089e-14 4.25981e-14 0 2.71051e-14 2.84233e-15 0 0 0 0)
(0 3.14559e-14 0 0 4.23171e-15 0 0 0 0)
(-8.88178e-14 2.56713e-14 0 0 6.29623e-15 0 0 0 0)
(0 6.27103e-15 0 -2.71051e-14 1.03005e-14 0 0 0 0)
(-4.44089e-14 -1.55308e-14 0 2.71051e-14 2.93696e-15 0 0 0 0)
(0 -5.47679e-15 0 -2.71051e-14 -3.69238e-15 0 0 0 0)
(0 -7.61312e-16 0 0 -3.45307e-17 0 0 0 0)
(0 -5.33867e-15 0 0 -3.43129e-15 0 0 0 0)
(-4.44089e-14 1.29638e-14 0 2.71051e-14 4.01986e-15 0 0 0 0)
(-4.44089e-14 -2.14181e-14 0 -2.71051e-14 5.08295e-15 0 0 0 0)
(8.88178e-14 -7.36799e-15 0 0 -1.5659e-14 0 0 0 0)
(-4.44089e-14 4.12178e-14 0 2.71051e-14 -4.28728e-15 0 0 0 0)
(-4.44089e-14 9.78112e-15 0 -2.71051e-14 6.43947e-15 0 0 0 0)
(0 1.54599e-14 0 0 -3.99912e-15 0 0 0 0)
(0 2.57776e-14 0 0 6.42192e-15 0 0 0 0)
(-4.44089e-14 -1.02278e-14 0 0 7.82879e-15 0 0 0 0)
(0 -5.53758e-15 0 0 -3.25261e-15 0 0 0 0)
(0 2.78266e-15 0 0 -6.88729e-16 0 0 0 0)
(-9.21572e-13 1.1119e-11 0 -5.77316e-12 5.66111e-11 0 0 0 0)
(1.51788e-12 -1.34314e-11 0 2.08722e-12 -1.21349e-11 0 0 0 0)
(-4.06576e-13 2.88941e-12 0 3.10862e-13 2.88546e-12 0 0 0 0)
(2.71051e-14 -6.6965e-13 0 3.9968e-13 -5.77286e-13 0 0 0 0)
(-2.71051e-14 1.56643e-13 0 4.88498e-13 2.06859e-13 0 0 0 0)
(-5.42101e-14 -3.75618e-14 0 2.22045e-13 4.92879e-14 0 0 0 0)
(-2.71051e-14 -2.40501e-15 0 2.66454e-13 5.66123e-14 0 0 0 0)
(-2.71051e-14 -1.1888e-14 0 2.22045e-13 3.96678e-14 0 0 0 0)
(-2.71051e-14 -1.96734e-14 0 8.88178e-14 9.06024e-15 0 0 0 0)
(0 -5.62045e-15 0 8.88178e-14 -3.90256e-14 0 0 0 0)
(2.71051e-14 1.56732e-14 0 1.77636e-13 -1.34216e-14 0 0 0 0)
(-2.71051e-14 1.48434e-14 0 1.33227e-13 2.36673e-14 0 0 0 0)
(-2.71051e-14 5.44492e-15 0 8.88178e-14 4.59522e-14 0 0 0 0)
(-2.71051e-14 -5.87198e-15 0 0 4.5447e-14 0 0 0 0)
(0 -1.01002e-14 0 0 2.24643e-14 0 0 0 0)
(0 -3.34261e-15 0 0 5.04614e-15 0 0 0 0)
(0 4.93757e-15 0 0 9.09387e-15 0 0 0 0)
(0 -2.48796e-15 0 0 2.47964e-14 0 0 0 0)
(0 -8.64603e-15 0 4.44089e-14 -8.57988e-16 0 0 0 0)
(0 2.66142e-15 0 0 -9.7877e-15 0 0 0 0)
)
;
    }
    frontAndBack
    {
        type            empty;
    }
}


// ************************************************************************* //
