/*--------------------------------*- C++ -*----------------------------------*\
| =========                 |                                                 |
| \\      /  F ield         | OpenFOAM: The Open Source CFD Toolbox           |
|  \\    /   O peration     | Version:  2506                                  |
|   \\  /    A nd           | Website:  www.openfoam.com                      |
|    \\/     M anipulation  |                                                 |
\*---------------------------------------------------------------------------*/
FoamFile
{
    version     2.0;
    format      ascii;
    arch        "LSB;label=32;scalar=64";
    class       volScalarField;
    location    "6.875";
    object      Lambda2Field;
}
// * * * * * * * * * * * * * * * * * * * * * * * * * * * * * * * * * * * * * //

dimensions      [0 0 -2 0 0 0 0];

internalField   nonuniform List<scalar> 
400
(
9.58938e-24
6.30862e-24
1.65304e-25
1.88856e-26
9.22634e-27
2.73848e-27
3.28257e-28
0
-3.31811e-28
0
4.93407e-28
7.34684e-28
7.34684e-28
1.053e-27
8.21301e-28
0
-1.89215e-28
0
0
0
2.51954e-24
5.72299e-24
4.45151e-25
2.12004e-27
0
1.25314e-27
2.39917e-27
6.45295e-28
7.39839e-28
0
-2.0323e-27
-1.23648e-27
0
4.39696e-30
2.04898e-28
4.36226e-28
0
0
2.01144e-29
6.72828e-29
4.05236e-23
1.56048e-23
0
1.32984e-25
-1.80247e-26
4.37189e-27
6.69949e-28
0
9.70875e-28
0
0
1.22666e-27
1.05903e-27
-9.80964e-28
-2.8522e-27
0
6.84245e-28
0
9.54335e-31
4.24113e-28
2.98684e-23
1.13734e-23
4.89495e-25
-1.15759e-26
1.32224e-26
-3.07595e-27
2.6261e-27
1.50766e-27
5.021e-28
-1.01191e-27
-1.89309e-27
1.57818e-28
6.37247e-28
5.98277e-30
1.51343e-28
4.05287e-28
0
0
1.5742e-29
0
4.40394e-24
6.69536e-24
4.66077e-25
1.52351e-27
2.78389e-27
0
2.2092e-28
0
0
-1.80558e-29
2.46083e-28
3.94665e-28
2.68982e-29
0
0
-3.95125e-28
-3.86242e-28
-8.04641e-28
2.4965e-29
3.96425e-29
2.31839e-23
1.10912e-23
2.97577e-25
7.34684e-28
7.34684e-28
2.23084e-28
9.53864e-29
-5.41831e-29
0
0
1.24855e-28
0
-7.57026e-29
-1.21087e-28
8.51718e-29
0
1.305e-29
1.56153e-28
3.7104e-28
0
3.42767e-23
1.20159e-23
-1.07331e-25
4.17863e-26
-1.3327e-26
3.69839e-28
-1.53509e-28
4.71028e-30
4.36503e-30
0
2.57313e-29
1.14101e-27
7.81955e-28
0
0
0
-4.7745e-29
2.60947e-29
4.09262e-28
0
4.01582e-24
2.20707e-24
1.56221e-25
2.93874e-27
3.84339e-27
-3.97151e-28
1.05761e-27
4.81595e-28
1.51439e-29
3.68135e-31
0
0
0
9.0149e-29
2.56481e-29
0
1.37672e-28
2.37385e-28
2.23724e-28
3.86739e-29
4.58722e-24
2.63304e-24
0
2.04073e-26
-4.19374e-27
-6.12118e-28
-1.37665e-28
-1.00433e-27
0
0
0
-1.41858e-27
-2.96559e-28
-1.15192e-28
0
-6.4001e-28
0
1.60186e-28
3.84405e-29
1.19237e-33
4.26797e-24
4.48312e-24
-1.8991e-25
7.34684e-28
6.55218e-27
0
3.47684e-28
7.11855e-30
0
7.34684e-28
1.58473e-27
-5.63536e-28
9.50278e-28
0
0
-2.57667e-27
-1.60654e-27
1.88223e-28
3.0885e-29
0
0
1.31593e-24
-4.42172e-25
4.8783e-26
-1.01877e-26
1.27508e-27
-2.31733e-28
-1.1176e-27
-1.02082e-27
-3.68616e-28
5.56942e-30
0
-5.63945e-28
0
1.07307e-27
-5.37681e-28
0
2.34517e-28
4.90945e-29
1.08332e-28
2.71642e-24
2.09817e-24
0
4.42574e-26
-6.97704e-27
1.84746e-27
6.24368e-28
4.36398e-29
-8.5392e-28
5.95458e-28
1.79883e-29
0
0
-2.73563e-29
3.76551e-28
0
0
0
0
3.60388e-28
4.03536e-25
1.0811e-25
7.38241e-26
1.51902e-27
1.45896e-27
6.10885e-29
0
1.34679e-28
7.46692e-31
0
0
0
-7.58963e-28
0
6.48921e-28
0
0
6.78575e-30
0
2.45204e-28
1.00867e-23
3.94517e-24
0
2.93874e-27
-3.67159e-27
1.34729e-27
0
-2.68554e-28
-4.47393e-28
5.21577e-28
3.96632e-28
-6.16701e-28
0
2.36322e-28
3.41985e-28
6.07042e-29
0
0
0
5.77069e-28
2.59588e-23
9.23784e-24
-1.59146e-25
1.7867e-26
-1.32478e-26
2.25252e-27
8.68252e-30
0
-8.04395e-28
0
5.45483e-28
4.10382e-28
-1.45351e-27
0
3.47124e-28
4.03592e-28
3.39704e-28
0
0
0
6.93961e-24
7.80275e-24
0
1.77827e-26
0
0
-9.89967e-28
7.90377e-28
4.16557e-28
-4.67202e-28
-5.8938e-28
-4.24917e-28
8.59817e-28
1.68366e-27
2.06948e-28
-4.17358e-28
2.75335e-29
3.08327e-28
1.82931e-29
0
8.69445e-24
5.78165e-24
3.92467e-25
1.11916e-26
2.36418e-27
5.18864e-29
0
0
0
-2.22207e-27
0
-6.82143e-28
-1.0213e-28
5.09128e-28
6.26689e-28
0
1.17095e-28
0
0
4.12411e-29
4.85639e-23
1.55018e-23
3.35021e-25
4.51773e-26
-2.48572e-27
-3.10437e-27
0
0
1.69302e-27
0
-2.04565e-28
-3.79277e-28
-2.48547e-27
-1.21873e-28
6.49558e-30
-1.04479e-28
2.87141e-29
4.26469e-29
1.87223e-28
6.129e-29
8.01411e-24
1.09095e-23
3.87029e-25
2.51412e-26
1.12489e-27
8.71505e-29
0
-1.77199e-27
5.79119e-30
0
7.34684e-28
5.17477e-28
2.01327e-28
2.74263e-30
0
0
0
1.15471e-28
-1.49305e-28
0
1.26028e-23
4.91833e-24
4.04353e-25
0
5.44613e-27
-1.03302e-27
2.62254e-28
-1.52644e-29
3.5765e-28
0
0
3.82936e-28
-8.14092e-29
1.00855e-29
0
1.95326e-28
0
1.93358e-29
0
0
)
;

boundaryField
{
    movingWall
    {
        type            calculated;
        value           nonuniform List<scalar> 
20
(
0
0
5.83228e-25
-2.62147e-26
2.00328e-26
-3.18205e-27
8.43516e-28
-3.3599e-28
-5.00782e-28
-1.99725e-28
-1.33614e-28
9.22453e-30
1.1483e-28
1.79028e-28
4.20214e-28
7.34684e-28
0
1.20888e-28
0
0
)
;
    }
    fixedWalls
    {
        type            calculated;
        value           nonuniform List<scalar> 
60
(
7.78283e-23
8.12523e-23
2.11984e-22
1.92581e-22
1.17416e-22
1.78737e-22
1.75124e-22
2.85563e-23
2.94811e-23
2.18475e-23
-1.89536e-23
1.73909e-23
2.24024e-24
5.24532e-23
1.31873e-22
9.78468e-23
9.84961e-23
2.48901e-22
1.7691e-22
9.18063e-23
0
6.72828e-29
1.1627e-27
0
3.96425e-29
-6.38757e-29
0
1.48449e-28
0
0
3.67545e-28
6.06376e-28
2.45204e-28
1.13559e-27
0
0
0
6.129e-29
0
0
0
0
1.06351e-24
0
7.72547e-26
-5.40165e-27
9.38598e-29
-1.06614e-27
-1.01266e-27
0
2.96426e-27
2.53769e-27
1.21829e-27
7.34684e-28
0
0
0
0
-3.83225e-28
0
)
;
    }
    frontAndBack
    {
        type            empty;
    }
}


// ************************************************************************* //
