/*--------------------------------*- C++ -*----------------------------------*\
| =========                 |                                                 |
| \\      /  F ield         | OpenFOAM: The Open Source CFD Toolbox           |
|  \\    /   O peration     | Version:  2506                                  |
|   \\  /    A nd           | Website:  www.openfoam.com                      |
|    \\/     M anipulation  |                                                 |
\*---------------------------------------------------------------------------*/
FoamFile
{
    version     2.0;
    format      ascii;
    arch        "LSB;label=32;scalar=64";
    class       volVectorField;
    location    "6.875";
    object      LambVectorField;
}
// * * * * * * * * * * * * * * * * * * * * * * * * * * * * * * * * * * * * * //

dimensions      [0 1 -2 0 0 0 0];

internalField   nonuniform List<vector> 
400
(
(-1.46241e-24 -1.0333e-11 0)
(-3.98428e-25 1.31333e-11 -0)
(-2.08432e-26 -2.88941e-12 0)
(-9.2733e-28 6.42545e-13 -0)
(-5.29733e-29 -1.02433e-13 0)
(-2.05141e-30 -1.66484e-14 0)
(4.17659e-30 2.95101e-14 0)
(6.55492e-30 6.60981e-14 0)
(1.6735e-30 7.38835e-14 0)
(-5.48354e-31 5.62045e-15 -0)
(-3.83582e-31 1.14318e-14 -0)
(-8.78262e-31 -1.48434e-14 0)
(-6.25515e-31 -5.44492e-15 0)
(-5.49206e-30 -4.83381e-14 0)
(-3.99948e-30 -7.12149e-14 0)
(4.21681e-32 3.34261e-15 0)
(-1.3447e-30 -5.91477e-14 0)
(1.54231e-31 2.48796e-15 0)
(-1.85455e-32 8.64603e-15 -0)
(6.5123e-32 -2.66142e-15 -0)
(2.16873e-27 4.47757e-13 0)
(-1.28307e-28 1.07857e-13 -0)
(-5.76799e-29 -2.39021e-13 0)
(1.85396e-29 -1.19882e-13 -0)
(-2.09231e-29 -2.46483e-13 0)
(-1.8817e-29 -1.32719e-13 0)
(-5.69049e-30 -1.00143e-13 0)
(-6.19647e-30 -1.0501e-13 0)
(-2.30807e-30 -1.01596e-13 0)
(5.86771e-31 -6.35752e-14 -0)
(-1.55865e-29 -1.33941e-13 0)
(-2.37504e-29 -9.65546e-14 0)
(1.94329e-30 7.23051e-15 0)
(4.72031e-30 2.71791e-14 0)
(-8.89135e-32 2.93604e-14 -0)
(-1.29858e-30 1.08279e-14 -0)
(7.84375e-31 -7.04693e-15 -0)
(3.05861e-30 -6.18398e-14 -0)
(-2.01671e-31 5.7603e-15 -0)
(1.52109e-30 -1.42074e-14 -0)
(-7.92685e-25 6.13881e-12 -0)
(-3.07085e-25 -1.10089e-11 0)
(-1.77792e-26 2.70618e-12 -0)
(-5.40293e-28 -3.93051e-13 0)
(-1.36664e-28 2.90208e-13 -0)
(-1.94661e-29 1.13033e-13 -0)
(-4.07498e-30 1.65654e-14 -0)
(2.16817e-30 -3.24485e-14 -0)
(2.85726e-30 3.64024e-14 0)
(1.71385e-32 1.54042e-16 0)
(2.61337e-30 3.39617e-14 0)
(3.21324e-30 7.5265e-14 0)
(-1.26311e-30 -9.18942e-15 0)
(1.03165e-29 7.66536e-14 0)
(-1.23082e-29 1.41503e-13 -0)
(-1.54987e-30 7.89766e-15 -0)
(-1.24164e-29 7.48164e-14 -0)
(1.56149e-30 -1.18964e-14 -0)
(1.16366e-31 -2.47618e-15 -0)
(-1.25197e-30 1.17561e-14 -0)
(-5.6269e-25 -5.19213e-12 0)
(-2.21516e-25 9.47297e-12 -0)
(-1.15126e-26 -2.08853e-12 0)
(-6.69691e-28 5.85669e-13 -0)
(8.5773e-30 4.33824e-14 0)
(-3.15538e-29 1.42112e-13 -0)
(-1.28896e-29 9.25946e-14 -0)
(-4.00365e-30 6.27742e-14 -0)
(2.08342e-30 4.50906e-14 0)
(3.41419e-30 1.2453e-13 0)
(-1.52409e-29 1.32657e-13 -0)
(-4.57476e-30 2.12826e-14 -0)
(-2.03698e-31 3.59478e-15 -0)
(5.41717e-31 2.68843e-14 0)
(-1.59546e-30 2.92973e-14 -0)
(1.08119e-31 -6.1007e-14 -0)
(-3.89094e-31 -2.87988e-14 0)
(8.84001e-32 5.82903e-15 0)
(-4.20056e-31 9.38054e-15 -0)
(9.70568e-31 -1.23419e-14 -0)
(-7.88997e-27 6.24069e-13 -0)
(-2.97708e-27 -1.14179e-12 0)
(-1.55301e-28 2.27453e-13 -0)
(-8.89363e-30 -1.43894e-13 0)
(4.66954e-30 -8.19321e-14 -0)
(-4.4511e-30 -6.54809e-14 0)
(-1.24465e-30 -2.23396e-14 0)
(1.02152e-32 5.02698e-16 0)
(-3.2436e-30 -6.39913e-14 0)
(-3.28287e-30 -2.77897e-14 0)
(4.39358e-31 7.63645e-15 0)
(-1.17803e-30 -2.8204e-14 0)
(-1.79492e-30 -2.61943e-14 0)
(3.37328e-32 1.03283e-15 0)
(-1.86403e-30 -3.20308e-14 0)
(9.21282e-30 1.12464e-13 0)
(1.12683e-30 6.34697e-14 0)
(-9.79772e-31 9.17576e-14 -0)
(-4.63689e-31 5.35004e-15 -0)
(9.68118e-31 -1.50848e-14 -0)
(-5.94188e-25 5.67091e-12 -0)
(-2.14247e-25 -9.26182e-12 0)
(-1.16797e-26 2.16951e-12 -0)
(-5.88807e-28 -5.04895e-13 0)
(-3.8608e-29 1.1537e-13 -0)
(-3.63968e-31 -2.91227e-14 0)
(1.02404e-30 -2.35859e-14 -0)
(6.92803e-31 -3.05285e-14 -0)
(5.50291e-31 -5.99286e-14 -0)
(-1.11135e-30 -3.22214e-14 0)
(-9.55602e-31 -2.27629e-14 0)
(-3.4345e-31 3.84567e-14 -0)
(-2.5205e-30 3.52339e-14 -0)
(3.00794e-30 -3.33401e-14 -0)
(1.41707e-31 -1.54279e-14 -0)
(-4.30713e-30 -6.7237e-14 0)
(-3.49757e-30 -2.88854e-14 0)
(9.48777e-31 1.15899e-14 0)
(5.05795e-32 9.75403e-15 0)
(4.4139e-31 -2.81543e-14 -0)
(-1.337e-24 -8.893e-12 0)
(-4.35539e-25 1.34382e-11 -0)
(-2.35385e-26 -3.11419e-12 0)
(-1.22982e-27 6.79209e-13 -0)
(-5.702e-29 -2.54244e-13 0)
(3.85663e-30 -4.73878e-14 -0)
(-1.10162e-29 -7.05944e-14 0)
(1.47457e-30 1.78826e-14 0)
(-9.96031e-32 4.37319e-15 -0)
(-2.514e-30 -6.49169e-14 0)
(-6.82754e-30 -8.09987e-14 0)
(-2.40798e-30 -6.7712e-14 0)
(5.23645e-30 -1.01208e-13 -0)
(2.04647e-30 -5.59747e-14 -0)
(2.95856e-30 -8.67774e-14 -0)
(-1.21418e-30 -6.72248e-14 0)
(-8.73481e-30 -9.09373e-14 0)
(-9.40612e-30 -8.23052e-14 0)
(-4.94428e-30 -4.66645e-14 0)
(1.61455e-30 4.15831e-14 0)
(-2.2087e-25 3.76765e-12 -0)
(-6.67576e-26 -5.32195e-12 0)
(-3.42529e-27 1.15568e-12 -0)
(-2.03865e-28 -2.84763e-13 0)
(-8.26986e-31 7.11491e-15 -0)
(-4.70696e-30 -4.58489e-14 0)
(7.38068e-31 1.03653e-14 0)
(-1.00312e-32 1.01281e-14 -0)
(2.06471e-32 -6.86519e-16 -0)
(-5.4222e-32 -9.22966e-15 0)
(-2.75292e-31 -4.42438e-15 0)
(3.0542e-30 6.09395e-14 0)
(-4.24586e-31 8.37034e-14 -0)
(1.49138e-30 5.68432e-14 0)
(-1.90513e-30 6.06654e-14 -0)
(-4.18904e-30 1.09327e-13 -0)
(-3.22277e-30 7.96221e-14 -0)
(-1.07153e-30 5.01049e-14 -0)
(2.92125e-32 5.07023e-14 0)
(-3.51586e-31 -2.56782e-14 0)
(-2.64018e-25 4.13459e-12 -0)
(-7.74656e-26 -5.71062e-12 0)
(-4.44697e-27 1.37851e-12 -0)
(-2.31644e-28 -2.68028e-13 0)
(-5.8405e-31 1.65348e-13 -0)
(2.34179e-30 9.78779e-14 0)
(-1.18923e-29 7.03021e-14 -0)
(9.96497e-30 -7.274e-14 -0)
(-2.93393e-31 -1.81788e-14 0)
(-4.45644e-31 -9.94878e-15 0)
(1.3042e-29 1.12793e-13 0)
(8.53855e-32 8.03783e-14 0)
(-1.06961e-29 7.32332e-14 -0)
(-6.67559e-30 3.52891e-14 -0)
(1.41454e-30 -6.20699e-15 -0)
(6.57625e-30 -5.17413e-14 -0)
(-3.74624e-31 -2.02858e-14 0)
(3.88304e-30 5.12552e-14 0)
(3.5463e-31 7.38558e-15 0)
(9.50115e-33 4.99198e-15 0)
(-1.15909e-24 -9.32458e-12 0)
(-3.04738e-25 1.14037e-11 -0)
(-1.71599e-26 -2.65066e-12 0)
(-7.90118e-28 6.07629e-13 -0)
(-2.64971e-29 -6.66563e-14 0)
(-3.92456e-30 4.28133e-14 -0)
(-5.64922e-31 1.84526e-14 -0)
(-1.50175e-32 2.92046e-15 -0)
(-5.52885e-30 9.24259e-14 -0)
(-1.0566e-31 9.08912e-16 -0)
(3.01032e-30 -4.36857e-14 -0)
(-3.33616e-30 -6.73188e-14 0)
(-8.98252e-31 -1.44464e-14 0)
(-1.89106e-30 2.455e-14 -0)
(-2.56155e-31 1.3973e-15 -0)
(1.21524e-29 -1.3354e-13 -0)
(-6.93759e-30 -1.02203e-13 0)
(-6.32753e-30 -5.36797e-14 0)
(6.54107e-31 1.04529e-14 0)
(1.01332e-31 7.59232e-15 0)
(-1.29622e-24 1.0436e-11 -0)
(-3.17738e-25 -1.16968e-11 0)
(-1.7062e-26 2.77263e-12 -0)
(-6.73447e-28 -5.04257e-13 0)
(-6.2004e-29 2.08071e-13 -0)
(2.08559e-30 3.06891e-14 0)
(-4.52276e-30 7.20374e-14 -0)
(-1.38449e-29 1.25505e-13 -0)
(-2.40412e-29 1.02904e-13 -0)
(-3.86865e-29 1.18596e-13 -0)
(6.90853e-30 -2.05986e-14 -0)
(5.23834e-30 -4.35741e-14 -0)
(-4.89042e-30 -4.87325e-14 0)
(2.04644e-31 2.13043e-15 0)
(8.0601e-31 1.01965e-14 0)
(-5.72736e-31 9.69625e-14 -0)
(-4.54267e-30 5.86717e-14 -0)
(3.52987e-31 -6.98676e-15 -0)
(-1.91163e-31 2.52938e-14 -0)
(-7.48931e-31 2.31083e-14 -0)
(-4.99938e-25 -6.05361e-12 0)
(-1.40533e-25 7.58603e-12 -0)
(-7.87628e-27 -1.83797e-12 0)
(-3.05248e-28 3.18395e-13 -0)
(-5.16817e-29 -1.79315e-13 0)
(-4.28596e-31 -2.01305e-14 0)
(2.25218e-30 -4.28342e-14 -0)
(5.05714e-30 -5.46905e-14 -0)
(8.10917e-30 -1.69736e-13 -0)
(2.32627e-30 -1.08667e-13 -0)
(4.08364e-30 -9.0129e-14 -0)
(-6.45838e-30 -9.67829e-14 0)
(-9.35724e-30 -8.5557e-14 0)
(-9.25626e-30 -8.48038e-14 0)
(-7.01777e-30 -4.86483e-14 0)
(1.09549e-30 2.04646e-14 0)
(-5.36243e-31 8.87949e-15 -0)
(4.59395e-31 -1.30274e-14 -0)
(-2.51479e-30 -3.5986e-14 0)
(-7.9045e-31 -1.47623e-14 0)
(1.98146e-27 -3.1847e-13 -0)
(-7.98328e-28 -5.1637e-13 0)
(-5.78298e-30 2.36092e-14 -0)
(-1.81496e-29 -8.03992e-14 0)
(-4.62541e-31 -2.72971e-14 0)
(-2.25697e-31 5.20194e-15 -0)
(1.00875e-30 -2.876e-14 -0)
(1.38821e-30 -5.17257e-14 -0)
(-2.99151e-31 4.99262e-15 -0)
(4.92947e-31 -6.42158e-15 -0)
(-6.43336e-32 -1.49709e-14 0)
(2.23047e-30 3.05776e-14 0)
(-2.89115e-30 9.5014e-14 -0)
(1.46326e-31 -2.28478e-15 -0)
(-3.20214e-31 4.22396e-14 -0)
(5.58813e-32 1.00396e-15 0)
(-1.68169e-31 9.54396e-15 -0)
(6.95124e-32 -1.74748e-15 -0)
(8.48136e-34 -5.81987e-15 -0)
(3.36611e-32 1.82742e-15 0)
(-4.18924e-25 4.98366e-12 -0)
(-1.40352e-25 -7.47631e-12 0)
(-7.98387e-27 1.80737e-12 -0)
(-4.07035e-28 -4.19534e-13 0)
(-3.13728e-29 1.41286e-13 -0)
(3.001e-30 3.0176e-14 0)
(1.67561e-31 9.16183e-15 0)
(4.69528e-31 5.99524e-14 0)
(-3.4e-30 8.68812e-14 -0)
(-2.13263e-30 4.45887e-14 -0)
(2.67669e-30 4.68935e-14 0)
(1.71838e-30 6.78217e-14 0)
(-5.14084e-30 6.50448e-14 -0)
(-4.13813e-30 4.98507e-14 -0)
(-5.44353e-31 1.53591e-14 -0)
(-2.34415e-31 -6.80467e-15 0)
(2.07975e-30 6.37863e-14 0)
(-2.4938e-30 4.06731e-14 -0)
(-4.30145e-31 4.17312e-15 -0)
(-6.69078e-31 6.49309e-15 -0)
(-1.15595e-24 -8.38095e-12 0)
(-3.75379e-25 1.24036e-11 -0)
(-2.01315e-26 -2.94197e-12 0)
(-1.03266e-27 6.23102e-13 -0)
(-8.49836e-29 -2.49369e-13 0)
(-4.38415e-31 -1.88614e-14 0)
(-1.46538e-31 1.15455e-14 -0)
(-2.24964e-31 2.43967e-15 -0)
(3.46895e-30 -9.35307e-14 -0)
(-2.57022e-30 -8.58342e-14 0)
(-6.04391e-31 -7.46069e-14 0)
(3.16634e-30 -8.52577e-14 -0)
(-5.82872e-30 -1.22643e-13 0)
(6.8482e-32 6.5165e-16 0)
(-5.89339e-31 -1.43708e-14 0)
(1.04062e-30 -4.67651e-14 -0)
(1.67173e-30 -4.99916e-14 -0)
(1.97988e-30 -3.0726e-14 -0)
(-1.10723e-32 -3.9984e-15 0)
(7.15817e-31 -2.92734e-14 -0)
(-5.76844e-25 6.4568e-12 -0)
(-1.52337e-25 -8.09967e-12 0)
(-8.92227e-27 1.96198e-12 -0)
(-3.13515e-28 -3.85016e-13 0)
(-4.98537e-29 1.16926e-13 -0)
(1.08033e-29 -1.28728e-13 -0)
(-3.46356e-30 -7.25275e-14 0)
(-5.01767e-31 -5.05556e-15 0)
(5.73548e-30 5.83403e-14 0)
(2.57094e-30 4.43661e-14 0)
(-4.26503e-30 5.74026e-14 -0)
(-2.23459e-29 9.11979e-14 -0)
(-6.63931e-30 3.83493e-14 -0)
(-1.03147e-30 1.19357e-14 -0)
(5.04917e-32 -2.35575e-15 -0)
(-5.43424e-30 8.64479e-14 -0)
(1.67661e-31 -2.30426e-15 -0)
(-7.65202e-31 1.92171e-14 -0)
(-7.15158e-34 -1.16891e-16 0)
(1.25734e-31 -3.25317e-15 -0)
(2.3539e-26 -8.26154e-13 -0)
(-1.25633e-26 -1.96419e-12 0)
(-6.79629e-28 4.43611e-13 -0)
(-1.5781e-29 -4.72828e-14 0)
(-3.28625e-29 1.33556e-13 -0)
(4.0745e-30 -2.15982e-14 -0)
(1.13559e-30 -3.77576e-14 -0)
(-1.48904e-29 -7.8816e-14 0)
(3.60926e-30 1.67108e-14 0)
(2.55985e-30 1.1733e-13 0)
(-1.53777e-29 1.06671e-13 -0)
(-1.55448e-29 6.70787e-14 -0)
(-1.53337e-29 5.61991e-14 -0)
(-2.54275e-30 1.01051e-14 -0)
(-4.16212e-31 4.04689e-15 -0)
(2.5653e-31 -1.2188e-14 -0)
(-1.02459e-31 -5.38347e-15 0)
(1.08224e-30 3.30084e-14 0)
(-1.47317e-30 3.68281e-14 -0)
(6.73086e-31 -1.04445e-14 -0)
(-4.65518e-25 -3.96432e-12 0)
(-2.48611e-25 9.76052e-12 -0)
(-1.37454e-26 -2.29158e-12 0)
(-5.68537e-28 4.73776e-13 -0)
(-6.52704e-29 -1.45917e-13 0)
(-1.5131e-30 1.27243e-13 -0)
(-1.05518e-30 8.81842e-14 -0)
(-5.24178e-30 6.50494e-14 -0)
(-4.79403e-30 3.98312e-14 -0)
(-9.28884e-30 4.46917e-14 -0)
(-1.02957e-29 3.47563e-14 -0)
(1.18862e-29 -4.18007e-14 -0)
(2.01761e-29 -1.35167e-13 -0)
(1.15348e-30 -6.82959e-14 -0)
(2.25939e-31 -2.68654e-14 -0)
(6.07331e-31 -3.1491e-14 -0)
(-3.51855e-31 -9.92562e-15 0)
(-4.29435e-30 -5.36993e-14 0)
(-6.57338e-31 -2.1665e-14 0)
(1.4296e-31 5.59105e-15 0)
(-1.42905e-25 3.08411e-12 -0)
(-3.93778e-26 -4.13131e-12 0)
(-2.48815e-27 1.07609e-12 -0)
(-5.81803e-29 -1.46552e-13 0)
(-2.94157e-30 8.76697e-14 -0)
(3.28233e-30 5.26025e-14 0)
(-8.42438e-31 4.82042e-14 -0)
(-1.53218e-29 1.03113e-13 -0)
(-6.61419e-30 2.80911e-14 -0)
(5.47532e-30 -3.45548e-14 -0)
(-4.77095e-31 2.96411e-15 -0)
(6.82272e-30 -3.62729e-14 -0)
(1.31483e-30 -1.89787e-14 -0)
(-1.10362e-33 -6.52016e-16 0)
(-3.80881e-31 6.06896e-15 -0)
(7.9868e-31 -1.35377e-14 -0)
(-9.47347e-31 -1.30457e-14 0)
(3.54128e-31 4.95562e-15 0)
(7.57954e-31 3.28666e-14 0)
(5.10917e-32 3.69054e-15 0)
(-3.92738e-25 4.72368e-12 -0)
(-1.35587e-25 -7.5258e-12 0)
(-6.80382e-27 1.56024e-12 -0)
(-3.39175e-28 -4.30669e-13 0)
(-1.0631e-29 3.27007e-14 -0)
(5.98077e-30 -7.33336e-14 -0)
(7.17481e-30 -5.35974e-14 -0)
(7.74834e-30 -8.83683e-14 -0)
(3.87382e-30 -6.11652e-14 -0)
(5.94486e-31 -3.27869e-14 -0)
(3.60039e-31 -5.5264e-14 -0)
(-6.55676e-34 8.6353e-17 -0)
(-4.19064e-31 5.67958e-14 -0)
(-2.56896e-31 7.67992e-15 -0)
(-3.9826e-31 4.73119e-15 -0)
(4.20644e-31 -5.20843e-15 -0)
(1.70977e-31 -5.32749e-15 -0)
(9.96055e-32 -3.62369e-15 -0)
(-1.2082e-31 -2.91581e-14 0)
(1.95693e-33 -2.81303e-16 -0)
)
;

boundaryField
{
    movingWall
    {
        type            calculated;
        value           nonuniform List<vector> 
20
(
(0 1.2197e-11 -0)
(0 -9.61012e-12 -0)
(0 1.45642e-12 -0)
(0 -7.14427e-13 -0)
(0 -1.35134e-13 -0)
(0 -2.41168e-13 -0)
(0 -1.77023e-13 -0)
(0 -2.29098e-13 -0)
(0 -1.84591e-13 -0)
(0 -5.00908e-14 -0)
(0 -1.34281e-13 -0)
(0 8.6353e-17 -0)
(0 -4.18232e-14 -0)
(0 7.67992e-15 -0)
(0 -8.40866e-14 -0)
(0 -5.20843e-15 -0)
(0 -5.32749e-15 -0)
(0 -3.62369e-15 -0)
(0 -4.6462e-14 -0)
(0 -2.81303e-16 -0)
)
;
    }
    fixedWalls
    {
        type            calculated;
        value           nonuniform List<vector> 
60
(
(0 -5.58251e-11 -0)
(0 -1.12427e-12 -0)
(0 4.76663e-11 -0)
(0 -4.00426e-11 -0)
(0 4.67764e-12 -0)
(0 3.94176e-11 -0)
(0 -5.72369e-11 -0)
(0 2.26089e-11 -0)
(0 2.46478e-11 -0)
(0 -4.92885e-11 -0)
(0 5.04143e-11 -0)
(0 -3.26817e-11 -0)
(0 1.70267e-12 -0)
(0 3.20788e-11 -0)
(0 -5.27851e-11 -0)
(0 3.51393e-11 -0)
(0 8.36115e-12 -0)
(0 -4.17395e-11 -0)
(0 1.7938e-11 -0)
(0 3.1468e-11 -0)
(0 -9.7877e-15 -0)
(0 -4.28253e-14 -0)
(0 -1.54931e-14 -0)
(0 -3.14559e-14 -0)
(0 -2.56713e-14 -0)
(0 -3.33761e-14 -0)
(0 4.26359e-14 -0)
(0 -2.16283e-14 -0)
(0 7.61312e-16 -0)
(0 5.33867e-15 -0)
(0 1.41412e-14 -0)
(0 -5.68694e-15 -0)
(0 7.36799e-15 -0)
(0 -1.41127e-14 -0)
(0 -3.68862e-14 -0)
(0 -1.54599e-14 -0)
(0 -2.57776e-14 -0)
(0 1.02278e-14 -0)
(0 5.53758e-15 -0)
(0 -2.78266e-15 -0)
(0 -1.68922e-11 -0)
(0 1.55186e-11 -0)
(0 -2.57855e-12 -0)
(0 1.06933e-12 -0)
(0 3.31855e-13 -0)
(0 2.59606e-13 -0)
(0 2.68859e-13 -0)
(0 2.33933e-13 -0)
(0 1.08491e-13 -0)
(0 9.44383e-14 -0)
(0 1.61962e-13 -0)
(0 1.18383e-13 -0)
(0 8.33729e-14 -0)
(0 5.87198e-15 -0)
(0 1.01002e-14 -0)
(0 3.34261e-15 -0)
(0 -4.93757e-15 -0)
(0 2.48796e-15 -0)
(0 5.30549e-14 -0)
(0 -2.66142e-15 -0)
)
;
    }
    frontAndBack
    {
        type            empty;
    }
}


// ************************************************************************* //
