/*--------------------------------*- C++ -*----------------------------------*\
| =========                 |                                                 |
| \\      /  F ield         | OpenFOAM: The Open Source CFD Toolbox           |
|  \\    /   O peration     | Version:  2506                                  |
|   \\  /    A nd           | Website:  www.openfoam.com                      |
|    \\/     M anipulation  |                                                 |
\*---------------------------------------------------------------------------*/
FoamFile
{
    version     2.0;
    format      ascii;
    arch        "LSB;label=32;scalar=64";
    class       volScalarField;
    location    "6.875";
    object      QField;
}
// * * * * * * * * * * * * * * * * * * * * * * * * * * * * * * * * * * * * * //

dimensions      [0 0 -2 0 0 0 0];

internalField   nonuniform List<scalar> 
400
(
-2.22293e-23
-8.79007e-24
-3.03101e-25
-2.24819e-26
-1.01235e-26
-3.4728e-27
-4.72453e-28
2.15709e-28
9.43523e-28
0
-2.00354e-28
-8.27105e-28
-1.03987e-27
-1.09703e-27
-8.21301e-28
0
2.67666e-28
0
0
0
-4.06457e-23
-1.3894e-23
-9.19979e-25
-2.12004e-27
3.74962e-27
-1.98188e-27
-2.99819e-27
-1.71951e-27
-7.39839e-28
-6.24348e-28
2.46746e-27
1.23919e-27
0
-1.13673e-28
-7.75978e-28
-5.66117e-28
0
-6.33994e-28
2.43127e-28
-4.44664e-28
-4.48254e-23
-1.65441e-23
4.37544e-26
-1.29569e-25
2.03518e-26
-5.02052e-27
-8.17014e-28
0
-1.02902e-27
0
1.85849e-28
-1.74133e-27
-1.76415e-27
1.21666e-27
3.44748e-27
0
-8.66769e-28
0
-2.64789e-29
-4.93075e-28
-4.35753e-23
-1.27508e-23
-5.56725e-25
1.81354e-26
-1.36096e-26
3.65287e-27
-3.35138e-27
-1.50766e-27
-5.6973e-28
1.72796e-27
2.57515e-27
-1.57818e-28
-6.37247e-28
-5.98277e-30
-3.34083e-28
-1.13947e-27
4.59098e-29
0
-2.15085e-28
0
-4.31342e-23
-1.20427e-23
-7.45235e-25
-1.36924e-26
-2.83576e-27
-2.47102e-29
1.30463e-28
0
6.80369e-28
1.85563e-29
-4.25197e-28
-1.08706e-27
-6.49951e-29
0
1.08007e-29
4.38462e-28
5.01962e-28
8.49126e-28
1.3543e-28
-1.7066e-28
-4.77497e-23
-1.40438e-23
-4.61622e-25
-5.07536e-27
-7.62372e-28
-4.04841e-28
-9.53864e-29
9.27939e-29
5.09124e-28
-5.07016e-28
-4.51687e-29
3.2451e-28
2.20334e-28
1.69003e-28
-5.00297e-28
5.33108e-28
-1.63973e-28
-3.38708e-28
-5.22108e-28
2.84388e-29
-3.29522e-23
-1.18541e-23
1.59323e-25
-3.73177e-26
1.46537e-26
-3.69839e-28
5.77507e-28
-5.88266e-29
-5.66297e-29
6.57981e-28
-2.57313e-29
-1.2662e-27
-7.81955e-28
9.56584e-29
5.64609e-28
9.83015e-28
3.4452e-28
-4.79203e-28
-4.21543e-28
3.12823e-28
-1.2e-23
-5.59477e-24
-4.12064e-25
1.45008e-26
-2.0895e-27
5.08053e-28
-1.76296e-27
-1.18966e-27
-2.10959e-28
3.28915e-29
0
5.51825e-28
-3.17088e-28
-2.70902e-28
-7.00658e-28
9.83594e-29
-1.37672e-28
-1.37028e-29
-5.04235e-28
-3.86739e-29
-9.95243e-24
-4.90363e-24
-1.94847e-25
-6.5385e-27
6.83314e-27
8.20071e-28
5.96364e-28
1.00451e-27
0
0
1.1871e-28
1.41858e-27
8.48959e-28
2.21829e-28
0
6.67768e-28
0
-1.60186e-28
-1.68052e-28
9.35956e-31
-3.08691e-24
-4.32392e-24
2.7563e-25
1.27737e-27
-6.55218e-27
0
-5.22858e-28
-1.44636e-28
-4.50517e-28
-1.00559e-27
-3.21802e-27
7.10623e-28
-1.011e-27
0
0
2.72354e-27
1.69849e-27
6.55819e-28
-3.01269e-28
0
8.2327e-24
-1.12439e-24
4.84135e-25
-4.39121e-26
1.03072e-26
-1.27508e-27
9.06883e-28
1.61559e-27
1.72286e-27
8.46231e-28
-6.39669e-29
0
5.86214e-28
0
-2.6637e-27
8.80608e-28
-1.0582e-28
-8.30171e-28
-4.90945e-29
-1.08332e-28
5.73769e-24
-7.99064e-25
1.26827e-25
-2.04702e-26
7.9689e-27
-1.84746e-27
-6.91795e-28
-2.00219e-28
1.15567e-27
-6.49366e-28
-2.04024e-28
2.10631e-28
-3.64038e-28
2.83682e-28
-7.71122e-28
0
0
0
2.20627e-28
-4.72326e-28
2.7943e-24
-9.58473e-25
-2.26613e-25
1.18764e-26
-1.45896e-27
4.23701e-28
4.48568e-29
-1.34679e-28
-4.68437e-29
0
0
-1.30272e-28
1.11392e-27
0
-6.48921e-28
0
0
-7.06072e-29
0
-8.48875e-28
-1.00867e-23
-4.66165e-24
-4.78034e-26
1.02079e-26
5.59818e-27
-1.4835e-27
0
3.1129e-28
4.52605e-28
-5.21577e-28
-3.96632e-28
7.37884e-28
3.76055e-28
-2.36322e-28
-1.8667e-28
-2.11183e-28
5.62008e-28
4.34597e-28
0
-4.42481e-28
-2.50504e-23
-9.23347e-24
2.36143e-25
-1.9737e-26
1.36653e-26
-3.40736e-27
-1.59736e-28
0
9.93305e-28
8.0753e-29
-5.45483e-28
-1.87788e-27
1.54204e-27
0
-4.21101e-28
-4.03592e-28
-7.99875e-28
1.56407e-28
0
-1.15769e-28
-3.17216e-23
-1.10676e-23
-1.15974e-25
-2.73608e-26
2.43461e-27
2.13232e-27
9.92989e-28
-1.52404e-27
-4.62055e-28
4.67863e-28
8.21217e-28
8.03614e-28
-8.59817e-28
-3.31184e-27
-3.89925e-28
4.17373e-28
-1.42227e-28
-7.40854e-28
-2.31859e-28
0
-3.58508e-23
-1.06144e-23
-6.70283e-25
-1.59167e-26
-2.85638e-27
-1.95244e-28
0
-1.28416e-28
0
2.92852e-27
8.5875e-28
6.9761e-28
1.07823e-28
-6.49244e-28
-6.60293e-28
0
2.93305e-28
4.84699e-28
1.97888e-28
-1.74067e-28
-4.68956e-23
-1.5174e-23
-3.18361e-25
-4.44517e-26
2.64441e-27
3.73462e-27
4.90253e-28
5.87601e-28
-3.32593e-27
-1.19397e-29
2.07386e-28
3.98326e-28
2.89987e-27
7.63594e-28
-6.49558e-30
1.18881e-28
-1.45244e-28
-1.32514e-28
2.34778e-29
-2.122e-28
-5.0579e-23
-1.47486e-23
-6.09551e-25
-3.46909e-26
-2.3734e-27
-8.71505e-29
-8.89234e-29
1.77249e-27
-1.27839e-28
2.01926e-28
-7.8526e-28
-1.25183e-27
-3.84593e-28
-4.48884e-29
0
0
0
-5.82529e-28
1.56168e-28
0
-2.42849e-23
-6.8081e-24
-5.15324e-25
1.09386e-26
-5.68358e-27
1.03669e-27
-4.43424e-28
5.73523e-28
-4.32834e-28
1.54008e-28
5.7131e-29
-1.06082e-27
1.40173e-28
8.60794e-29
0
-3.78818e-28
0
-1.19188e-28
1.29388e-28
0
)
;

boundaryField
{
    movingWall
    {
        type            calculated;
        value           nonuniform List<scalar> 
20
(
4.56837e-24
3.09659e-24
-1.0737e-24
1.25453e-25
-2.28228e-26
4.24627e-27
-1.5602e-27
1.5661e-27
5.48799e-28
2.52327e-28
1.40405e-28
-1.64646e-28
-1.1483e-28
3.62669e-28
-4.20214e-28
-8.75626e-28
0
2.98018e-28
1.361e-28
0
)
;
    }
    fixedWalls
    {
        type            calculated;
        value           nonuniform List<scalar> 
60
(
-1.29001e-22
-2.43167e-22
-2.31546e-22
-2.25081e-22
-2.30992e-22
-2.4493e-22
-1.70518e-22
-8.34359e-23
-6.99639e-23
-1.83474e-23
4.0065e-23
1.66536e-23
-1.08369e-23
-6.21906e-23
-1.28641e-22
-1.66901e-22
-1.99879e-22
-2.39695e-22
-2.69357e-22
-1.33094e-22
0
-7.28538e-28
-1.28085e-27
0
-5.59217e-28
1.69977e-28
2.90537e-28
-1.48449e-28
0
0
-5.29903e-28
-8.06268e-28
-1.3908e-27
-9.26817e-28
-2.08519e-29
0
0
-3.47668e-28
0
0
1.20208e-23
9.61491e-24
-2.07137e-24
2.51998e-25
-8.2127e-26
5.66848e-27
-8.93657e-28
1.56447e-27
1.50177e-27
4.99196e-28
-3.14792e-27
-2.61905e-27
-1.72914e-27
-1.23184e-27
0
0
0
0
3.83961e-28
0
)
;
    }
    frontAndBack
    {
        type            empty;
    }
}


// ************************************************************************* //
