/*--------------------------------*- C++ -*----------------------------------*\
| =========                 |                                                 |
| \\      /  F ield         | OpenFOAM: The Open Source CFD Toolbox           |
|  \\    /   O peration     | Version:  2506                                  |
|   \\  /    A nd           | Website:  www.openfoam.com                      |
|    \\/     M anipulation  |                                                 |
\*---------------------------------------------------------------------------*/
FoamFile
{
    version     2.0;
    format      ascii;
    arch        "LSB;label=32;scalar=64";
    class       volVectorField;
    location    "6.875";
    object      UzeroGrad;
}
// * * * * * * * * * * * * * * * * * * * * * * * * * * * * * * * * * * * * * //

dimensions      [0 1 -1 0 0 0 0];

internalField   nonuniform List<vector> 
400
(
(-1 1.41528e-13 0)
(-1 -3.03373e-14 0)
(-1 7.21364e-15 0)
(-1 -1.44322e-15 0)
(-1 5.17148e-16 0)
(-1 1.2322e-16 0)
(-1 1.41531e-16 0)
(-1 9.91696e-17 0)
(-1 2.26506e-17 0)
(-1 -9.7564e-17 0)
(-1 -3.35539e-17 0)
(-1 5.91684e-17 0)
(-1 1.1488e-16 0)
(-1 1.13618e-16 0)
(-1 5.61607e-17 0)
(-1 1.26153e-17 0)
(-1 2.27347e-17 0)
(-1 6.1991e-17 0)
(-1 -2.14497e-18 0)
(-1 -2.44693e-17 0)
(-1 4.84355e-15 0)
(-1 -1.1896e-15 0)
(-1 2.41318e-16 0)
(-1 -1.54648e-16 0)
(-1 8.48864e-17 0)
(-1 1.4178e-16 0)
(-1 5.68237e-17 0)
(-1 5.90085e-17 0)
(-1 2.2718e-17 0)
(-1 -9.22956e-18 0)
(-1 1.16369e-16 0)
(-1 2.4598e-16 0)
(-1 2.68763e-16 0)
(-1 1.73674e-16 0)
(-1 -3.02835e-18 0)
(-1 -1.19929e-16 0)
(-1 -1.11307e-16 0)
(-1 -4.94602e-17 0)
(-1 -3.50105e-17 0)
(-1 -1.07063e-16 0)
(-1 -1.29127e-13 0)
(-1 2.78943e-14 0)
(-1 -6.56983e-15 0)
(-1 1.37461e-15 0)
(-1 -4.70917e-16 0)
(-1 -1.72216e-16 0)
(-1 -2.45994e-16 0)
(-1 -6.68187e-17 0)
(-1 7.84909e-17 0)
(-1 1.11258e-16 0)
(-1 7.69505e-17 0)
(-1 4.26923e-17 0)
(-1 1.37453e-16 0)
(-1 1.34586e-16 0)
(-1 -8.6982e-17 0)
(-1 -1.96245e-16 0)
(-1 -1.65959e-16 0)
(-1 -1.31257e-16 0)
(-1 -4.6994e-17 0)
(-1 -1.06495e-16 0)
(-1 1.08373e-13 0)
(-1 -2.3384e-14 0)
(-1 5.51231e-15 0)
(-1 -1.14346e-15 0)
(-1 1.97714e-16 0)
(-1 -2.22035e-16 0)
(-1 -1.39204e-16 0)
(-1 -6.37786e-17 0)
(-1 4.62052e-17 0)
(-1 2.74167e-17 0)
(-1 -1.14889e-16 0)
(-1 -2.14953e-16 0)
(-1 -5.66649e-17 0)
(-1 2.01499e-17 0)
(-1 -5.44577e-17 0)
(-1 -1.77224e-18 0)
(-1 1.35108e-17 0)
(-1 1.51655e-17 0)
(-1 -4.47795e-17 0)
(-1 -7.86399e-17 0)
(-1 -1.26428e-14 0)
(-1 2.60738e-15 0)
(-1 -6.82786e-16 0)
(-1 6.18066e-17 0)
(-1 -5.69928e-17 0)
(-1 6.79755e-17 0)
(-1 5.57151e-17 0)
(-1 2.03208e-17 0)
(-1 5.06882e-17 0)
(-1 1.18133e-16 0)
(-1 5.75342e-17 0)
(-1 4.17682e-17 0)
(-1 6.85232e-17 0)
(-1 3.26604e-17 0)
(-1 5.81949e-17 0)
(-1 8.19177e-17 0)
(-1 1.77539e-17 0)
(-1 -1.06778e-17 0)
(-1 -8.66702e-17 0)
(-1 -6.41782e-17 0)
(-1 -1.04778e-13 0)
(-1 2.31323e-14 0)
(-1 -5.38359e-15 0)
(-1 1.1662e-15 0)
(-1 -3.34645e-16 0)
(-1 1.24977e-17 0)
(-1 -4.34173e-17 0)
(-1 -2.26936e-17 0)
(-1 -9.18245e-18 0)
(-1 3.44912e-17 0)
(-1 4.19808e-17 0)
(-1 -8.93082e-18 0)
(-1 -7.15361e-17 0)
(-1 -9.02197e-17 0)
(-1 -9.18513e-18 0)
(-1 6.40589e-17 0)
(-1 1.21084e-16 0)
(-1 8.18628e-17 0)
(-1 5.18549e-18 0)
(-1 -1.56776e-17 0)
(-1 1.50343e-13 0)
(-1 -3.24105e-14 0)
(-1 7.55847e-15 0)
(-1 -1.81067e-15 0)
(-1 2.24273e-16 0)
(-1 -8.13844e-17 0)
(-1 1.5605e-16 0)
(-1 8.24583e-17 0)
(-1 -2.27758e-17 0)
(-1 3.87264e-17 0)
(-1 8.42919e-17 0)
(-1 3.5562e-17 0)
(-1 -5.17395e-17 0)
(-1 -3.65606e-17 0)
(-1 -3.40936e-17 0)
(-1 1.80616e-17 0)
(-1 9.6053e-17 0)
(-1 1.14283e-16 0)
(-1 1.05954e-16 0)
(-1 3.88271e-17 0)
(-1 -5.86229e-14 0)
(-1 1.25438e-14 0)
(-1 -2.96386e-15 0)
(-1 7.15913e-16 0)
(-1 -1.16233e-16 0)
(-1 1.02662e-16 0)
(-1 7.12057e-17 0)
(-1 -9.90435e-19 0)
(-1 -3.00751e-17 0)
(-1 5.87476e-18 0)
(-1 6.22215e-17 0)
(-1 5.01186e-17 0)
(-1 -5.07251e-18 0)
(-1 2.62367e-17 0)
(-1 -3.14038e-17 0)
(-1 -3.83165e-17 0)
(-1 -4.04759e-17 0)
(-1 -2.13857e-17 0)
(-1 5.76157e-19 0)
(-1 1.3692e-17 0)
(-1 -6.38558e-14 0)
(-1 1.35652e-14 0)
(-1 -3.22592e-15 0)
(-1 8.64254e-16 0)
(-1 -3.53225e-18 0)
(-1 2.39256e-17 0)
(-1 -1.6916e-16 0)
(-1 -1.36994e-16 0)
(-1 1.61393e-17 0)
(-1 4.47938e-17 0)
(-1 1.15627e-16 0)
(-1 1.0623e-18 0)
(-1 -1.46055e-16 0)
(-1 -1.89168e-16 0)
(-1 -2.27895e-16 0)
(-1 -1.27098e-16 0)
(-1 1.84674e-17 0)
(-1 7.5759e-17 0)
(-1 4.80165e-17 0)
(-1 1.90328e-18 0)
(-1 1.24305e-13 0)
(-1 -2.67228e-14 0)
(-1 6.47381e-15 0)
(-1 -1.30033e-15 0)
(-1 3.97519e-16 0)
(-1 -9.16668e-17 0)
(-1 -3.06147e-17 0)
(-1 -5.14219e-18 0)
(-1 -5.98193e-17 0)
(-1 -1.16249e-16 0)
(-1 -6.89084e-17 0)
(-1 4.95577e-17 0)
(-1 6.21783e-17 0)
(-1 -7.7029e-17 0)
(-1 -1.83322e-16 0)
(-1 -9.10019e-17 0)
(-1 6.78806e-17 0)
(-1 1.17876e-16 0)
(-1 6.25766e-17 0)
(-1 1.33467e-17 0)
(-1 -1.24206e-13 0)
(-1 2.71645e-14 0)
(-1 -6.15372e-15 0)
(-1 1.33552e-15 0)
(-1 -2.97994e-16 0)
(-1 6.79588e-17 0)
(-1 -6.27835e-17 0)
(-1 -1.10314e-16 0)
(-1 -2.33627e-16 0)
(-1 -3.26203e-16 0)
(-1 -3.35388e-16 0)
(-1 -1.20217e-16 0)
(-1 1.00352e-16 0)
(-1 9.60579e-17 0)
(-1 7.9048e-17 0)
(-1 -5.90678e-18 0)
(-1 -7.74253e-17 0)
(-1 -5.05223e-17 0)
(-1 -7.5577e-18 0)
(-1 -3.24096e-17 0)
(-1 8.2585e-14 0)
(-1 -1.85253e-14 0)
(-1 4.28531e-15 0)
(-1 -9.58711e-16 0)
(-1 2.88217e-16 0)
(-1 2.12908e-17 0)
(-1 -5.2579e-17 0)
(-1 -9.24683e-17 0)
(-1 -4.7775e-17 0)
(-1 -2.14074e-17 0)
(-1 -4.53088e-17 0)
(-1 6.67306e-17 0)
(-1 1.09368e-16 0)
(-1 1.09149e-16 0)
(-1 1.44255e-16 0)
(-1 5.35311e-17 0)
(-1 -6.03912e-17 0)
(-1 -3.52638e-17 0)
(-1 6.98826e-17 0)
(-1 5.35453e-17 0)
(-1 -6.2218e-15 0)
(-1 1.54604e-15 0)
(-1 -2.44947e-16 0)
(-1 2.25743e-16 0)
(-1 1.69447e-17 0)
(-1 -4.33872e-17 0)
(-1 -3.50747e-17 0)
(-1 -2.68379e-17 0)
(-1 -5.99185e-17 0)
(-1 -7.67642e-17 0)
(-1 4.29726e-18 0)
(-1 7.29444e-17 0)
(-1 -3.04287e-17 0)
(-1 -6.4044e-17 0)
(-1 -7.5809e-18 0)
(-1 5.56608e-17 0)
(-1 -1.76205e-17 0)
(-1 -3.97787e-17 0)
(-1 -1.45731e-19 0)
(-1 1.842e-17 0)
(-1 -8.40594e-14 0)
(-1 1.87729e-14 0)
(-1 -4.41739e-15 0)
(-1 9.70207e-16 0)
(-1 -2.22052e-16 0)
(-1 9.945e-17 0)
(-1 1.8289e-17 0)
(-1 7.83169e-18 0)
(-1 -3.91339e-17 0)
(-1 -4.78289e-17 0)
(-1 5.70801e-17 0)
(-1 2.53367e-17 0)
(-1 -7.90354e-17 0)
(-1 -8.30104e-17 0)
(-1 -3.54417e-17 0)
(-1 3.44491e-17 0)
(-1 3.2605e-17 0)
(-1 -6.13133e-17 0)
(-1 -1.03075e-16 0)
(-1 -1.03044e-16 0)
(-1 1.37926e-13 0)
(-1 -3.02638e-14 0)
(-1 6.84286e-15 0)
(-1 -1.65729e-15 0)
(-1 3.40795e-16 0)
(-1 2.32441e-17 0)
(-1 -1.26922e-17 0)
(-1 -9.22109e-17 0)
(-1 -3.70889e-17 0)
(-1 2.99441e-17 0)
(-1 8.10101e-18 0)
(-1 -3.71384e-17 0)
(-1 4.75259e-17 0)
(-1 1.0509e-16 0)
(-1 4.10094e-17 0)
(-1 -2.22521e-17 0)
(-1 -3.34402e-17 0)
(-1 -6.44368e-17 0)
(-1 2.76917e-18 0)
(-1 -2.44528e-17 0)
(-1 -8.9339e-14 0)
(-1 1.88078e-14 0)
(-1 -4.54758e-15 0)
(-1 8.1429e-16 0)
(-1 -4.26368e-16 0)
(-1 -8.39237e-17 0)
(-1 4.77551e-17 0)
(-1 9.92505e-17 0)
(-1 9.83107e-17 0)
(-1 5.79483e-17 0)
(-1 -7.43002e-17 0)
(-1 -2.45027e-16 0)
(-1 -1.73127e-16 0)
(-1 -8.64189e-17 0)
(-1 -2.14334e-17 0)
(-1 -6.28614e-17 0)
(-1 -7.27611e-17 0)
(-1 -3.98187e-17 0)
(-1 6.11814e-18 0)
(-1 -3.86498e-17 0)
(-1 -2.84923e-14 0)
(-1 6.39617e-15 0)
(-1 -1.53204e-15 0)
(-1 3.33758e-16 0)
(-1 -2.46058e-16 0)
(-1 -1.8865e-16 0)
(-1 -3.00758e-17 0)
(-1 1.88926e-16 0)
(-1 2.15984e-16 0)
(-1 2.18176e-17 0)
(-1 -1.44161e-16 0)
(-1 -2.3174e-16 0)
(-1 -2.72847e-16 0)
(-1 -2.51629e-16 0)
(-1 -1.02848e-16 0)
(-1 -2.10478e-17 0)
(-1 1.90322e-17 0)
(-1 3.27869e-17 0)
(-1 -4.00012e-17 0)
(-1 -6.4444e-17 0)
(-1 1.17427e-13 0)
(-1 -2.54711e-14 0)
(-1 5.99823e-15 0)
(-1 -1.20001e-15 0)
(-1 4.47312e-16 0)
(-1 -1.18914e-17 0)
(-1 -1.19656e-17 0)
(-1 -8.05815e-17 0)
(-1 -1.20359e-16 0)
(-1 -2.07843e-16 0)
(-1 -2.96225e-16 0)
(-1 -2.84355e-16 0)
(-1 -1.49268e-16 0)
(-1 -1.68894e-17 0)
(-1 -8.41005e-18 0)
(-1 -1.92859e-17 0)
(-1 3.54492e-17 0)
(-1 7.99704e-17 0)
(-1 3.03411e-17 0)
(-1 2.55694e-17 0)
(-1 -4.63358e-14 0)
(-1 9.53157e-15 0)
(-1 -2.31222e-15 0)
(-1 3.96995e-16 0)
(-1 -3.35529e-17 0)
(-1 6.23987e-17 0)
(-1 -1.74764e-17 0)
(-1 -1.48593e-16 0)
(-1 -2.35455e-16 0)
(-1 -1.58453e-16 0)
(-1 -1.60957e-16 0)
(-1 -1.88094e-16 0)
(-1 -6.92791e-17 0)
(-1 1.69263e-18 0)
(-1 -6.27589e-17 0)
(-1 -5.89969e-17 0)
(-1 7.26177e-17 0)
(-1 7.14598e-17 0)
(-1 2.30615e-17 0)
(-1 1.38439e-17 0)
(-1 -8.31424e-14 0)
(-1 1.80163e-14 0)
(-1 -4.36074e-15 0)
(-1 7.87553e-16 0)
(-1 -3.251e-16 0)
(-1 -8.15556e-17 0)
(-1 -1.33865e-16 0)
(-1 -8.76823e-17 0)
(-1 -6.33338e-17 0)
(-1 -1.81318e-17 0)
(-1 -6.5149e-18 0)
(-1 -7.59298e-18 0)
(-1 -7.37843e-18 0)
(-1 -3.34503e-17 0)
(-1 -8.41776e-17 0)
(-1 -8.07622e-17 0)
(-1 -3.20933e-17 0)
(-1 -2.74873e-17 0)
(-1 4.14362e-18 0)
(-1 -6.95665e-18 0)
)
;

boundaryField
{
    movingWall
    {
        type            zeroGradient;
    }
    fixedWalls
    {
        type            zeroGradient;
    }
    frontAndBack
    {
        type            empty;
    }
}


// ************************************************************************* //
