/*--------------------------------*- C++ -*----------------------------------*\
| =========                 |                                                 |
| \\      /  F ield         | OpenFOAM: The Open Source CFD Toolbox           |
|  \\    /   O peration     | Version:  2506                                  |
|   \\  /    A nd           | Website:  www.openfoam.com                      |
|    \\/     M anipulation  |                                                 |
\*---------------------------------------------------------------------------*/
FoamFile
{
    version     2.0;
    format      ascii;
    arch        "LSB;label=32;scalar=64";
    class       volVectorField;
    location    "6.875";
    object      vorticityField;
}
// * * * * * * * * * * * * * * * * * * * * * * * * * * * * * * * * * * * * * //

dimensions      [0 0 -1 0 0 0 0];

internalField   nonuniform List<vector> 
400
(
(0 -0 1.0333e-11)
(0 -0 -1.31333e-11)
(0 -0 2.88941e-12)
(0 -0 -6.42545e-13)
(0 -0 1.02433e-13)
(0 -0 1.66484e-14)
(0 -0 -2.95101e-14)
(0 -0 -6.60981e-14)
(0 -0 -7.38835e-14)
(0 -0 -5.62045e-15)
(0 -0 -1.14318e-14)
(0 -0 1.48434e-14)
(0 -0 5.44492e-15)
(0 -0 4.83381e-14)
(0 -0 7.12149e-14)
(0 -0 -3.34261e-15)
(0 -0 5.91477e-14)
(0 -0 -2.48796e-15)
(0 -0 -8.64603e-15)
(0 -0 2.66142e-15)
(0 -0 -4.47757e-13)
(0 -0 -1.07857e-13)
(0 -0 2.39021e-13)
(0 -0 1.19882e-13)
(0 -0 2.46483e-13)
(0 -0 1.32719e-13)
(0 -0 1.00143e-13)
(0 -0 1.0501e-13)
(0 -0 1.01596e-13)
(0 -0 6.35752e-14)
(0 -0 1.33941e-13)
(0 -0 9.65546e-14)
(0 -0 -7.23051e-15)
(0 -0 -2.71791e-14)
(0 -0 -2.93604e-14)
(0 -0 -1.08279e-14)
(0 -0 7.04693e-15)
(0 -0 6.18398e-14)
(0 -0 -5.7603e-15)
(0 -0 1.42074e-14)
(0 -0 -6.13881e-12)
(0 -0 1.10089e-11)
(0 -0 -2.70618e-12)
(0 -0 3.93051e-13)
(0 -0 -2.90208e-13)
(0 -0 -1.13033e-13)
(0 -0 -1.65654e-14)
(0 -0 3.24485e-14)
(0 -0 -3.64024e-14)
(0 -0 -1.54042e-16)
(0 -0 -3.39617e-14)
(0 -0 -7.5265e-14)
(0 -0 9.18942e-15)
(0 -0 -7.66536e-14)
(0 -0 -1.41503e-13)
(0 -0 -7.89766e-15)
(0 -0 -7.48164e-14)
(0 -0 1.18964e-14)
(0 -0 2.47618e-15)
(0 -0 -1.17561e-14)
(0 -0 5.19213e-12)
(0 -0 -9.47297e-12)
(0 -0 2.08853e-12)
(0 -0 -5.85669e-13)
(0 -0 -4.33824e-14)
(0 -0 -1.42112e-13)
(0 -0 -9.25946e-14)
(0 -0 -6.27742e-14)
(0 -0 -4.50906e-14)
(0 -0 -1.2453e-13)
(0 -0 -1.32657e-13)
(0 -0 -2.12826e-14)
(0 -0 -3.59478e-15)
(0 -0 -2.68843e-14)
(0 -0 -2.92973e-14)
(0 -0 6.1007e-14)
(0 -0 2.87988e-14)
(0 -0 -5.82903e-15)
(0 -0 -9.38054e-15)
(0 -0 1.23419e-14)
(0 -0 -6.24069e-13)
(0 -0 1.14179e-12)
(0 -0 -2.27453e-13)
(0 -0 1.43894e-13)
(0 -0 8.19321e-14)
(0 -0 6.54809e-14)
(0 -0 2.23396e-14)
(0 -0 -5.02698e-16)
(0 -0 6.39913e-14)
(0 -0 2.77897e-14)
(0 -0 -7.63645e-15)
(0 -0 2.8204e-14)
(0 -0 2.61943e-14)
(0 -0 -1.03283e-15)
(0 -0 3.20308e-14)
(0 -0 -1.12464e-13)
(0 -0 -6.34697e-14)
(0 -0 -9.17576e-14)
(0 -0 -5.35004e-15)
(0 -0 1.50848e-14)
(0 -0 -5.67091e-12)
(0 -0 9.26182e-12)
(0 -0 -2.16951e-12)
(0 -0 5.04895e-13)
(0 -0 -1.1537e-13)
(0 -0 2.91227e-14)
(0 -0 2.35859e-14)
(0 -0 3.05285e-14)
(0 -0 5.99286e-14)
(0 -0 3.22214e-14)
(0 -0 2.27629e-14)
(0 -0 -3.84567e-14)
(0 -0 -3.52339e-14)
(0 -0 3.33401e-14)
(0 -0 1.54279e-14)
(0 -0 6.7237e-14)
(0 -0 2.88854e-14)
(0 -0 -1.15899e-14)
(0 -0 -9.75403e-15)
(0 -0 2.81543e-14)
(0 -0 8.893e-12)
(0 -0 -1.34382e-11)
(0 -0 3.11419e-12)
(0 -0 -6.79209e-13)
(0 -0 2.54244e-13)
(0 -0 4.73878e-14)
(0 -0 7.05944e-14)
(0 -0 -1.78826e-14)
(0 -0 -4.37319e-15)
(0 -0 6.49169e-14)
(0 -0 8.09987e-14)
(0 -0 6.7712e-14)
(0 -0 1.01208e-13)
(0 -0 5.59747e-14)
(0 -0 8.67774e-14)
(0 -0 6.72248e-14)
(0 -0 9.09373e-14)
(0 -0 8.23052e-14)
(0 -0 4.66645e-14)
(0 -0 -4.15831e-14)
(0 -0 -3.76765e-12)
(0 -0 5.32195e-12)
(0 -0 -1.15568e-12)
(0 -0 2.84763e-13)
(0 -0 -7.11491e-15)
(0 -0 4.58489e-14)
(0 -0 -1.03653e-14)
(0 -0 -1.01281e-14)
(0 -0 6.86519e-16)
(0 -0 9.22966e-15)
(0 -0 4.42438e-15)
(0 -0 -6.09395e-14)
(0 -0 -8.37034e-14)
(0 -0 -5.68432e-14)
(0 -0 -6.06654e-14)
(0 -0 -1.09327e-13)
(0 -0 -7.96221e-14)
(0 -0 -5.01049e-14)
(0 -0 -5.07023e-14)
(0 -0 2.56782e-14)
(0 -0 -4.13459e-12)
(0 -0 5.71062e-12)
(0 -0 -1.37851e-12)
(0 -0 2.68028e-13)
(0 -0 -1.65348e-13)
(0 -0 -9.78779e-14)
(0 -0 -7.03021e-14)
(0 -0 7.274e-14)
(0 -0 1.81788e-14)
(0 -0 9.94878e-15)
(0 -0 -1.12793e-13)
(0 -0 -8.03783e-14)
(0 -0 -7.32332e-14)
(0 -0 -3.52891e-14)
(0 -0 6.20699e-15)
(0 -0 5.17413e-14)
(0 -0 2.02858e-14)
(0 -0 -5.12552e-14)
(0 -0 -7.38558e-15)
(0 -0 -4.99198e-15)
(0 -0 9.32458e-12)
(0 -0 -1.14037e-11)
(0 -0 2.65066e-12)
(0 -0 -6.07629e-13)
(0 -0 6.66563e-14)
(0 -0 -4.28133e-14)
(0 -0 -1.84526e-14)
(0 -0 -2.92046e-15)
(0 -0 -9.24259e-14)
(0 -0 -9.08912e-16)
(0 -0 4.36857e-14)
(0 -0 6.73188e-14)
(0 -0 1.44464e-14)
(0 -0 -2.455e-14)
(0 -0 -1.3973e-15)
(0 -0 1.3354e-13)
(0 -0 1.02203e-13)
(0 -0 5.36797e-14)
(0 -0 -1.04529e-14)
(0 -0 -7.59232e-15)
(0 -0 -1.0436e-11)
(0 -0 1.16968e-11)
(0 -0 -2.77263e-12)
(0 -0 5.04257e-13)
(0 -0 -2.08071e-13)
(0 -0 -3.06891e-14)
(0 -0 -7.20374e-14)
(0 -0 -1.25505e-13)
(0 -0 -1.02904e-13)
(0 -0 -1.18596e-13)
(0 -0 2.05986e-14)
(0 -0 4.35741e-14)
(0 -0 4.87325e-14)
(0 -0 -2.13043e-15)
(0 -0 -1.01965e-14)
(0 -0 -9.69625e-14)
(0 -0 -5.86717e-14)
(0 -0 6.98676e-15)
(0 -0 -2.52938e-14)
(0 -0 -2.31083e-14)
(0 -0 6.05361e-12)
(0 -0 -7.58603e-12)
(0 -0 1.83797e-12)
(0 -0 -3.18395e-13)
(0 -0 1.79315e-13)
(0 -0 2.01305e-14)
(0 -0 4.28342e-14)
(0 -0 5.46905e-14)
(0 -0 1.69736e-13)
(0 -0 1.08667e-13)
(0 -0 9.0129e-14)
(0 -0 9.67829e-14)
(0 -0 8.5557e-14)
(0 -0 8.48038e-14)
(0 -0 4.86483e-14)
(0 -0 -2.04646e-14)
(0 -0 -8.87949e-15)
(0 -0 1.30274e-14)
(0 -0 3.5986e-14)
(0 -0 1.47623e-14)
(0 -0 3.1847e-13)
(0 -0 5.1637e-13)
(0 -0 -2.36092e-14)
(0 -0 8.03992e-14)
(0 -0 2.72971e-14)
(0 -0 -5.20194e-15)
(0 -0 2.876e-14)
(0 -0 5.17257e-14)
(0 -0 -4.99262e-15)
(0 -0 6.42158e-15)
(0 -0 1.49709e-14)
(0 -0 -3.05776e-14)
(0 -0 -9.5014e-14)
(0 -0 2.28478e-15)
(0 -0 -4.22396e-14)
(0 -0 -1.00396e-15)
(0 -0 -9.54396e-15)
(0 -0 1.74748e-15)
(0 -0 5.81987e-15)
(0 -0 -1.82742e-15)
(0 -0 -4.98366e-12)
(0 -0 7.47631e-12)
(0 -0 -1.80737e-12)
(0 -0 4.19534e-13)
(0 -0 -1.41286e-13)
(0 -0 -3.0176e-14)
(0 -0 -9.16183e-15)
(0 -0 -5.99524e-14)
(0 -0 -8.68812e-14)
(0 -0 -4.45887e-14)
(0 -0 -4.68935e-14)
(0 -0 -6.78217e-14)
(0 -0 -6.50448e-14)
(0 -0 -4.98507e-14)
(0 -0 -1.53591e-14)
(0 -0 6.80467e-15)
(0 -0 -6.37863e-14)
(0 -0 -4.06731e-14)
(0 -0 -4.17312e-15)
(0 -0 -6.49309e-15)
(0 -0 8.38095e-12)
(0 -0 -1.24036e-11)
(0 -0 2.94197e-12)
(0 -0 -6.23102e-13)
(0 -0 2.49369e-13)
(0 -0 1.88614e-14)
(0 -0 -1.15455e-14)
(0 -0 -2.43967e-15)
(0 -0 9.35307e-14)
(0 -0 8.58342e-14)
(0 -0 7.46069e-14)
(0 -0 8.52577e-14)
(0 -0 1.22643e-13)
(0 -0 -6.5165e-16)
(0 -0 1.43708e-14)
(0 -0 4.67651e-14)
(0 -0 4.99916e-14)
(0 -0 3.0726e-14)
(0 -0 3.9984e-15)
(0 -0 2.92734e-14)
(0 -0 -6.4568e-12)
(0 -0 8.09967e-12)
(0 -0 -1.96198e-12)
(0 -0 3.85016e-13)
(0 -0 -1.16926e-13)
(0 -0 1.28728e-13)
(0 -0 7.25275e-14)
(0 -0 5.05556e-15)
(0 -0 -5.83403e-14)
(0 -0 -4.43661e-14)
(0 -0 -5.74026e-14)
(0 -0 -9.11979e-14)
(0 -0 -3.83493e-14)
(0 -0 -1.19357e-14)
(0 -0 2.35575e-15)
(0 -0 -8.64479e-14)
(0 -0 2.30426e-15)
(0 -0 -1.92171e-14)
(0 -0 1.16891e-16)
(0 -0 3.25317e-15)
(0 -0 8.26154e-13)
(0 -0 1.96419e-12)
(0 -0 -4.43611e-13)
(0 -0 4.72828e-14)
(0 -0 -1.33556e-13)
(0 -0 2.15982e-14)
(0 -0 3.77576e-14)
(0 -0 7.8816e-14)
(0 -0 -1.67108e-14)
(0 -0 -1.1733e-13)
(0 -0 -1.06671e-13)
(0 -0 -6.70787e-14)
(0 -0 -5.61991e-14)
(0 -0 -1.01051e-14)
(0 -0 -4.04689e-15)
(0 -0 1.2188e-14)
(0 -0 5.38347e-15)
(0 -0 -3.30084e-14)
(0 -0 -3.68281e-14)
(0 -0 1.04445e-14)
(0 -0 3.96432e-12)
(0 -0 -9.76052e-12)
(0 -0 2.29158e-12)
(0 -0 -4.73776e-13)
(0 -0 1.45917e-13)
(0 -0 -1.27243e-13)
(0 -0 -8.81842e-14)
(0 -0 -6.50494e-14)
(0 -0 -3.98312e-14)
(0 -0 -4.46917e-14)
(0 -0 -3.47563e-14)
(0 -0 4.18007e-14)
(0 -0 1.35167e-13)
(0 -0 6.82959e-14)
(0 -0 2.68654e-14)
(0 -0 3.1491e-14)
(0 -0 9.92562e-15)
(0 -0 5.36993e-14)
(0 -0 2.1665e-14)
(0 -0 -5.59105e-15)
(0 -0 -3.08411e-12)
(0 -0 4.13131e-12)
(0 -0 -1.07609e-12)
(0 -0 1.46552e-13)
(0 -0 -8.76697e-14)
(0 -0 -5.26025e-14)
(0 -0 -4.82042e-14)
(0 -0 -1.03113e-13)
(0 -0 -2.80911e-14)
(0 -0 3.45548e-14)
(0 -0 -2.96411e-15)
(0 -0 3.62729e-14)
(0 -0 1.89787e-14)
(0 -0 6.52016e-16)
(0 -0 -6.06896e-15)
(0 -0 1.35377e-14)
(0 -0 1.30457e-14)
(0 -0 -4.95562e-15)
(0 -0 -3.28666e-14)
(0 -0 -3.69054e-15)
(0 -0 -4.72368e-12)
(0 -0 7.5258e-12)
(0 -0 -1.56024e-12)
(0 -0 4.30669e-13)
(0 -0 -3.27007e-14)
(0 -0 7.33336e-14)
(0 -0 5.35974e-14)
(0 -0 8.83683e-14)
(0 -0 6.11652e-14)
(0 -0 3.27869e-14)
(0 -0 5.5264e-14)
(0 -0 -8.6353e-17)
(0 -0 -5.67958e-14)
(0 -0 -7.67992e-15)
(0 -0 -4.73119e-15)
(0 -0 5.20843e-15)
(0 -0 5.32749e-15)
(0 -0 3.62369e-15)
(0 -0 2.91581e-14)
(0 -0 2.81303e-16)
)
;

boundaryField
{
    movingWall
    {
        type            calculated;
        value           nonuniform List<vector> 
20
(
(0 -0 -1.2197e-11)
(0 -0 9.61012e-12)
(0 -0 -1.45642e-12)
(0 -0 7.14427e-13)
(0 -0 1.35134e-13)
(0 -0 2.41168e-13)
(0 -0 1.77023e-13)
(0 -0 2.29098e-13)
(0 -0 1.84591e-13)
(0 -0 5.00908e-14)
(0 -0 1.34281e-13)
(0 -0 -8.6353e-17)
(0 -0 4.18232e-14)
(0 -0 -7.67992e-15)
(0 -0 8.40866e-14)
(0 -0 5.20843e-15)
(0 -0 5.32749e-15)
(0 -0 3.62369e-15)
(0 -0 4.6462e-14)
(0 -0 2.81303e-16)
)
;
    }
    fixedWalls
    {
        type            calculated;
        value           nonuniform List<vector> 
60
(
(0 -0 5.58251e-11)
(0 -0 1.12427e-12)
(0 -0 -4.76663e-11)
(0 -0 4.00426e-11)
(0 -0 -4.67764e-12)
(0 -0 -3.94176e-11)
(0 -0 5.72369e-11)
(0 -0 -2.26089e-11)
(0 -0 -2.46478e-11)
(0 -0 4.92885e-11)
(0 -0 -5.04143e-11)
(0 -0 3.26817e-11)
(0 -0 -1.70267e-12)
(0 -0 -3.20788e-11)
(0 -0 5.27851e-11)
(0 -0 -3.51393e-11)
(0 -0 -8.36115e-12)
(0 -0 4.17395e-11)
(0 -0 -1.7938e-11)
(0 -0 -3.1468e-11)
(0 -0 9.7877e-15)
(0 -0 4.28253e-14)
(0 -0 1.54931e-14)
(0 -0 3.14559e-14)
(0 -0 2.56713e-14)
(0 -0 3.33761e-14)
(0 -0 -4.26359e-14)
(0 -0 2.16283e-14)
(0 -0 -7.61312e-16)
(0 -0 -5.33867e-15)
(0 -0 -1.41412e-14)
(0 -0 5.68694e-15)
(0 -0 -7.36799e-15)
(0 -0 1.41127e-14)
(0 -0 3.68862e-14)
(0 -0 1.54599e-14)
(0 -0 2.57776e-14)
(0 -0 -1.02278e-14)
(0 -0 -5.53758e-15)
(0 -0 2.78266e-15)
(0 -0 1.68922e-11)
(0 -0 -1.55186e-11)
(0 -0 2.57855e-12)
(0 -0 -1.06933e-12)
(0 -0 -3.31855e-13)
(0 -0 -2.59606e-13)
(0 -0 -2.68859e-13)
(0 -0 -2.33933e-13)
(0 -0 -1.08491e-13)
(0 -0 -9.44383e-14)
(0 -0 -1.61962e-13)
(0 -0 -1.18383e-13)
(0 -0 -8.33729e-14)
(0 -0 -5.87198e-15)
(0 -0 -1.01002e-14)
(0 -0 -3.34261e-15)
(0 -0 4.93757e-15)
(0 -0 -2.48796e-15)
(0 -0 -5.30549e-14)
(0 -0 2.66142e-15)
)
;
    }
    frontAndBack
    {
        type            empty;
    }
}


// ************************************************************************* //
