/*--------------------------------*- C++ -*----------------------------------*\
| =========                 |                                                 |
| \\      /  F ield         | OpenFOAM: The Open Source CFD Toolbox           |
|  \\    /   O peration     | Version:  2506                                  |
|   \\  /    A nd           | Website:  www.openfoam.com                      |
|    \\/     M anipulation  |                                                 |
\*---------------------------------------------------------------------------*/
FoamFile
{
    version     2.0;
    format      ascii;
    arch        "LSB;label=32;scalar=64";
    class       volScalarField;
    location    "6.875";
    object      zeroGradient(epsilon);
}
// * * * * * * * * * * * * * * * * * * * * * * * * * * * * * * * * * * * * * //

dimensions      [0 2 -3 0 0 0 0];

internalField   nonuniform List<scalar> 
400
(
2.39978e-06
2.39978e-06
2.39978e-06
2.39977e-06
2.39977e-06
2.39977e-06
2.39977e-06
2.39977e-06
2.39977e-06
2.39977e-06
2.39977e-06
2.39976e-06
2.39976e-06
2.39976e-06
2.39976e-06
2.39976e-06
2.39976e-06
2.39976e-06
2.39976e-06
2.39976e-06
2.52066e-06
2.48316e-06
2.4863e-06
2.4876e-06
2.49021e-06
2.49153e-06
2.49416e-06
2.49552e-06
2.49816e-06
2.49955e-06
2.50221e-06
2.50362e-06
2.5063e-06
2.50775e-06
2.51044e-06
2.51192e-06
2.51462e-06
2.51615e-06
2.51751e-06
2.51963e-06
2.70398e-06
2.66214e-06
2.66569e-06
2.66716e-06
2.67011e-06
2.67159e-06
2.67456e-06
2.67606e-06
2.67904e-06
2.68057e-06
2.68356e-06
2.68511e-06
2.68811e-06
2.68968e-06
2.6927e-06
2.6943e-06
2.69731e-06
2.69895e-06
2.70046e-06
2.7028e-06
2.88541e-06
2.83976e-06
2.84364e-06
2.84523e-06
2.84845e-06
2.85007e-06
2.8533e-06
2.85494e-06
2.85819e-06
2.85985e-06
2.86311e-06
2.8648e-06
2.86808e-06
2.86979e-06
2.87308e-06
2.87482e-06
2.87811e-06
2.8799e-06
2.88155e-06
2.88409e-06
3.0281e-06
2.97935e-06
2.98349e-06
2.98519e-06
2.98862e-06
2.99035e-06
2.9938e-06
2.99554e-06
2.99901e-06
3.00079e-06
3.00427e-06
3.00607e-06
3.00957e-06
3.0114e-06
3.0149e-06
3.01677e-06
3.02028e-06
3.02219e-06
3.02395e-06
3.02667e-06
3.1255e-06
3.07459e-06
3.07891e-06
3.08069e-06
3.08427e-06
3.08607e-06
3.08967e-06
3.09149e-06
3.09511e-06
3.09696e-06
3.1006e-06
3.10248e-06
3.10613e-06
3.10804e-06
3.1117e-06
3.11365e-06
3.11732e-06
3.11931e-06
3.12115e-06
3.12399e-06
3.18683e-06
3.13455e-06
3.13898e-06
3.14081e-06
3.14448e-06
3.14633e-06
3.15003e-06
3.1519e-06
3.15561e-06
3.15751e-06
3.16125e-06
3.16318e-06
3.16692e-06
3.16889e-06
3.17265e-06
3.17465e-06
3.17841e-06
3.18046e-06
3.18234e-06
3.18526e-06
3.22453e-06
3.17142e-06
3.17592e-06
3.17777e-06
3.18151e-06
3.18338e-06
3.18714e-06
3.18904e-06
3.19282e-06
3.19475e-06
3.19854e-06
3.2005e-06
3.20431e-06
3.20631e-06
3.21012e-06
3.21216e-06
3.21598e-06
3.21806e-06
3.21998e-06
3.22294e-06
3.24869e-06
3.19503e-06
3.19958e-06
3.20145e-06
3.20522e-06
3.20712e-06
3.21091e-06
3.21283e-06
3.21665e-06
3.2186e-06
3.22243e-06
3.22441e-06
3.22826e-06
3.23027e-06
3.23413e-06
3.23618e-06
3.24005e-06
3.24215e-06
3.24408e-06
3.24708e-06
3.2659e-06
3.21186e-06
3.21644e-06
3.21832e-06
3.22212e-06
3.22403e-06
3.22785e-06
3.22979e-06
3.23363e-06
3.23559e-06
3.23945e-06
3.24145e-06
3.24532e-06
3.24735e-06
3.25123e-06
3.2533e-06
3.25719e-06
3.25931e-06
3.26126e-06
3.26427e-06
3.28007e-06
3.22571e-06
3.23031e-06
3.23221e-06
3.23603e-06
3.23795e-06
3.2418e-06
3.24374e-06
3.2476e-06
3.24958e-06
3.25346e-06
3.25547e-06
3.25936e-06
3.26141e-06
3.26531e-06
3.2674e-06
3.27131e-06
3.27344e-06
3.2754e-06
3.27843e-06
3.2934e-06
3.23874e-06
3.24337e-06
3.24528e-06
3.24912e-06
3.25105e-06
3.25492e-06
3.25687e-06
3.26076e-06
3.26274e-06
3.26664e-06
3.26866e-06
3.27258e-06
3.27463e-06
3.27856e-06
3.28065e-06
3.28459e-06
3.28673e-06
3.2887e-06
3.29175e-06
3.30715e-06
3.25219e-06
3.25685e-06
3.25876e-06
3.26263e-06
3.26457e-06
3.26845e-06
3.27042e-06
3.27432e-06
3.27632e-06
3.28024e-06
3.28228e-06
3.28621e-06
3.28828e-06
3.29223e-06
3.29433e-06
3.29829e-06
3.30044e-06
3.30243e-06
3.30549e-06
3.32208e-06
3.2668e-06
3.27148e-06
3.27341e-06
3.27729e-06
3.27924e-06
3.28315e-06
3.28513e-06
3.28906e-06
3.29107e-06
3.29501e-06
3.29706e-06
3.30102e-06
3.3031e-06
3.30707e-06
3.30919e-06
3.31317e-06
3.31533e-06
3.31733e-06
3.32041e-06
3.33863e-06
3.28297e-06
3.28768e-06
3.28962e-06
3.29353e-06
3.29549e-06
3.29943e-06
3.30142e-06
3.30537e-06
3.3074e-06
3.31137e-06
3.31343e-06
3.31741e-06
3.31951e-06
3.3235e-06
3.32564e-06
3.32964e-06
3.33182e-06
3.33383e-06
3.33694e-06
3.35677e-06
3.30071e-06
3.30546e-06
3.30741e-06
3.31135e-06
3.31333e-06
3.31729e-06
3.3193e-06
3.32328e-06
3.32532e-06
3.32932e-06
3.33139e-06
3.3354e-06
3.33751e-06
3.34154e-06
3.34369e-06
3.34772e-06
3.34992e-06
3.35194e-06
3.35507e-06
3.37584e-06
3.31935e-06
3.32413e-06
3.32611e-06
3.33007e-06
3.33207e-06
3.33606e-06
3.33808e-06
3.34209e-06
3.34415e-06
3.34817e-06
3.35026e-06
3.35431e-06
3.35643e-06
3.36049e-06
3.36265e-06
3.36672e-06
3.36893e-06
3.37097e-06
3.37412e-06
3.39413e-06
3.33725e-06
3.34206e-06
3.34404e-06
3.34804e-06
3.35004e-06
3.35406e-06
3.3561e-06
3.36014e-06
3.36221e-06
3.36626e-06
3.36837e-06
3.37244e-06
3.37458e-06
3.37866e-06
3.38085e-06
3.38494e-06
3.38717e-06
3.38922e-06
3.39239e-06
3.4089e-06
3.35282e-06
3.35748e-06
3.3594e-06
3.36329e-06
3.36524e-06
3.36917e-06
3.37117e-06
3.37513e-06
3.37717e-06
3.38116e-06
3.38325e-06
3.38727e-06
3.38941e-06
3.39345e-06
3.39565e-06
3.39971e-06
3.40198e-06
3.40402e-06
3.4072e-06
3.41563e-06
3.41562e-06
3.41562e-06
3.41561e-06
3.41561e-06
3.41561e-06
3.41561e-06
3.41561e-06
3.4156e-06
3.4156e-06
3.4156e-06
3.4156e-06
3.4156e-06
3.4156e-06
3.4156e-06
3.4156e-06
3.4156e-06
3.4156e-06
3.4156e-06
3.4156e-06
)
;

boundaryField
{
    movingWall
    {
        type            zeroGradient;
    }
    fixedWalls
    {
        type            zeroGradient;
    }
    frontAndBack
    {
        type            empty;
    }
}


// ************************************************************************* //
