/*--------------------------------*- C++ -*----------------------------------*\
| =========                 |                                                 |
| \\      /  F ield         | OpenFOAM: The Open Source CFD Toolbox           |
|  \\    /   O peration     | Version:  2506                                  |
|   \\  /    A nd           | Website:  www.openfoam.com                      |
|    \\/     M anipulation  |                                                 |
\*---------------------------------------------------------------------------*/
FoamFile
{
    version     2.0;
    format      ascii;
    arch        "LSB;label=32;scalar=64";
    class       volVectorField;
    location    "8.125";
    object      diffU;
}
// * * * * * * * * * * * * * * * * * * * * * * * * * * * * * * * * * * * * * //

dimensions      [0 1 -1 0 0 0 0];

internalField   nonuniform List<vector> 
400
(
(0 0 0)
(-9.99201e-16 -9.50431e-14 0)
(2.22045e-16 -7.51443e-14 0)
(-9.99201e-16 -7.96113e-14 0)
(-8.88178e-16 -7.87051e-14 0)
(-8.88178e-16 -7.88332e-14 0)
(-9.99201e-16 -7.87847e-14 0)
(-8.88178e-16 -7.87254e-14 0)
(-1.22125e-15 -7.87483e-14 0)
(-1.44329e-15 -7.87496e-14 0)
(-1.44329e-15 -7.87792e-14 0)
(-1.44329e-15 -7.87462e-14 0)
(-1.55431e-15 -7.86732e-14 0)
(-1.55431e-15 -7.8687e-14 0)
(-1.66533e-15 -7.87968e-14 0)
(-1.66533e-15 -7.88976e-14 0)
(-1.66533e-15 -7.88754e-14 0)
(-1.66533e-15 -7.88445e-14 0)
(-1.44329e-15 -7.88229e-14 0)
(-1.66533e-15 -7.8786e-14 0)
(1.22125e-15 -7.38835e-14 0)
(-3.21965e-15 -7.92082e-14 0)
(-2.77556e-15 -7.85302e-14 0)
(-2.10942e-15 -7.87619e-14 0)
(-2.33147e-15 -7.88284e-14 0)
(-2.33147e-15 -7.87008e-14 0)
(-2.77556e-15 -7.87377e-14 0)
(-2.55351e-15 -7.87794e-14 0)
(-2.10942e-15 -7.87685e-14 0)
(-2.55351e-15 -7.88356e-14 0)
(-2.33147e-15 -7.88973e-14 0)
(-2.33147e-15 -7.8814e-14 0)
(-2.33147e-15 -7.87222e-14 0)
(-2.33147e-15 -7.87758e-14 0)
(-2.10942e-15 -7.89058e-14 0)
(-2.10942e-15 -7.89396e-14 0)
(-1.88738e-15 -7.8948e-14 0)
(-2.10942e-15 -7.89514e-14 0)
(-1.88738e-15 -7.8892e-14 0)
(-1.88738e-15 -7.88159e-14 0)
(-1.11022e-16 -1.36996e-13 0)
(-1.11022e-15 -6.63476e-14 0)
(-8.88178e-16 -8.1322e-14 0)
(-1.22125e-15 -7.81917e-14 0)
(-1.22125e-15 -7.88928e-14 0)
(-1.44329e-15 -7.86713e-14 0)
(-1.33227e-15 -7.87355e-14 0)
(-1.33227e-15 -7.88413e-14 0)
(-1.22125e-15 -7.87545e-14 0)
(-9.99201e-16 -7.86942e-14 0)
(-1.44329e-15 -7.8797e-14 0)
(-1.44329e-15 -7.88353e-14 0)
(-1.55431e-15 -7.87475e-14 0)
(-1.22125e-15 -7.8754e-14 0)
(-1.55431e-15 -7.88521e-14 0)
(-1.66533e-15 -7.88845e-14 0)
(-1.66533e-15 -7.898e-14 0)
(-1.66533e-15 -7.90204e-14 0)
(-1.66533e-15 -7.89907e-14 0)
(-1.66533e-15 -7.89468e-14 0)
(-9.65894e-15 -3.86169e-14 0)
(-9.99201e-16 -8.72286e-14 0)
(-2.55351e-15 -7.67216e-14 0)
(-2.33147e-15 -7.91532e-14 0)
(-2.33147e-15 -7.85755e-14 0)
(-2.55351e-15 -7.86537e-14 0)
(-2.55351e-15 -7.86234e-14 0)
(-2.33147e-15 -7.88068e-14 0)
(-2.55351e-15 -7.89068e-14 0)
(-2.10942e-15 -7.88524e-14 0)
(-1.88738e-15 -7.8826e-14 0)
(-1.66533e-15 -7.88352e-14 0)
(-1.88738e-15 -7.87957e-14 0)
(-1.66533e-15 -7.88136e-14 0)
(-1.55431e-15 -7.88513e-14 0)
(-1.66533e-15 -7.88835e-14 0)
(-1.44329e-15 -7.88836e-14 0)
(-1.66533e-15 -7.89068e-14 0)
(-1.66533e-15 -7.89869e-14 0)
(-1.66533e-15 -7.89622e-14 0)
(2.33147e-15 -8.94879e-14 0)
(-2.55351e-15 -7.63334e-14 0)
(-1.66533e-15 -7.91362e-14 0)
(-1.33227e-15 -7.84436e-14 0)
(-1.33227e-15 -7.86346e-14 0)
(-1.33227e-15 -7.87714e-14 0)
(-9.99201e-16 -7.89065e-14 0)
(-7.77156e-16 -7.90169e-14 0)
(-6.66134e-16 -7.91516e-14 0)
(-7.77156e-16 -7.91864e-14 0)
(-7.77156e-16 -7.89051e-14 0)
(-7.77156e-16 -7.87021e-14 0)
(-9.99201e-16 -7.86811e-14 0)
(-9.99201e-16 -7.88047e-14 0)
(-1.11022e-15 -7.88041e-14 0)
(-1.44329e-15 -7.87694e-14 0)
(-1.55431e-15 -7.8795e-14 0)
(-1.55431e-15 -7.88785e-14 0)
(-1.44329e-15 -7.89503e-14 0)
(-1.66533e-15 -7.88821e-14 0)
(-4.55191e-15 -9.91409e-14 0)
(-9.99201e-16 -7.45154e-14 0)
(-1.88738e-15 -7.97488e-14 0)
(-1.55431e-15 -7.86883e-14 0)
(-1.55431e-15 -7.88961e-14 0)
(-1.22125e-15 -7.88791e-14 0)
(-1.44329e-15 -7.89572e-14 0)
(-1.44329e-15 -7.87972e-14 0)
(-1.55431e-15 -7.87286e-14 0)
(-2.10942e-15 -7.88758e-14 0)
(-2.10942e-15 -7.88355e-14 0)
(-2.10942e-15 -7.87945e-14 0)
(-2.10942e-15 -7.88141e-14 0)
(-1.66533e-15 -7.88131e-14 0)
(-1.66533e-15 -7.87381e-14 0)
(-1.66533e-15 -7.87298e-14 0)
(-1.33227e-15 -7.88004e-14 0)
(-1.66533e-15 -7.88517e-14 0)
(-1.44329e-15 -7.88563e-14 0)
(-1.44329e-15 -7.87881e-14 0)
(8.88178e-16 -3.60903e-14 0)
(-1.88738e-15 -8.71473e-14 0)
(-1.33227e-15 -7.69183e-14 0)
(-1.55431e-15 -7.92171e-14 0)
(-1.66533e-15 -7.88297e-14 0)
(-1.88738e-15 -7.88624e-14 0)
(-1.66533e-15 -7.87937e-14 0)
(-1.88738e-15 -7.87972e-14 0)
(-1.55431e-15 -7.87709e-14 0)
(-1.22125e-15 -7.87569e-14 0)
(-1.33227e-15 -7.87179e-14 0)
(-1.33227e-15 -7.88058e-14 0)
(-1.33227e-15 -7.89821e-14 0)
(-1.44329e-15 -7.88896e-14 0)
(-1.44329e-15 -7.87436e-14 0)
(-1.66533e-15 -7.87595e-14 0)
(-1.66533e-15 -7.88414e-14 0)
(-1.66533e-15 -7.88358e-14 0)
(-1.66533e-15 -7.88199e-14 0)
(-1.66533e-15 -7.87755e-14 0)
(-7.88258e-15 -9.47394e-14 0)
(-1.55431e-15 -7.58593e-14 0)
(-3.21965e-15 -7.95153e-14 0)
(-1.88738e-15 -7.86698e-14 0)
(-2.33147e-15 -7.88317e-14 0)
(-2.10942e-15 -7.88752e-14 0)
(-1.88738e-15 -7.88832e-14 0)
(-2.10942e-15 -7.89449e-14 0)
(-2.10942e-15 -7.89662e-14 0)
(-2.10942e-15 -7.88716e-14 0)
(-2.33147e-15 -7.88318e-14 0)
(-2.10942e-15 -7.88318e-14 0)
(-1.88738e-15 -7.88264e-14 0)
(-2.10942e-15 -7.88284e-14 0)
(-1.88738e-15 -7.88303e-14 0)
(-1.33227e-15 -7.88317e-14 0)
(-1.33227e-15 -7.88311e-14 0)
(-1.44329e-15 -7.87774e-14 0)
(-1.55431e-15 -7.87436e-14 0)
(-1.55431e-15 -7.87492e-14 0)
(8.65974e-15 -1.08977e-13 0)
(-2.33147e-15 -7.27841e-14 0)
(1.11022e-16 -8.03813e-14 0)
(-1.33227e-15 -7.87079e-14 0)
(-1.22125e-15 -7.88721e-14 0)
(-1.22125e-15 -7.87641e-14 0)
(-1.44329e-15 -7.87462e-14 0)
(-1.44329e-15 -7.86826e-14 0)
(-1.33227e-15 -7.86539e-14 0)
(-1.33227e-15 -7.87309e-14 0)
(-1.22125e-15 -7.89532e-14 0)
(-1.22125e-15 -7.89802e-14 0)
(-1.44329e-15 -7.89049e-14 0)
(-1.22125e-15 -7.89859e-14 0)
(-1.22125e-15 -7.90353e-14 0)
(-1.33227e-15 -7.8891e-14 0)
(-1.66533e-15 -7.87223e-14 0)
(-1.66533e-15 -7.86572e-14 0)
(-1.66533e-15 -7.86562e-14 0)
(-1.66533e-15 -7.87532e-14 0)
(-6.99441e-15 -4.05202e-14 0)
(-8.88178e-16 -8.58036e-14 0)
(-2.10942e-15 -7.6853e-14 0)
(-1.88738e-15 -7.88933e-14 0)
(-2.10942e-15 -7.86458e-14 0)
(-2.10942e-15 -7.87786e-14 0)
(-2.10942e-15 -7.88497e-14 0)
(-2.10942e-15 -7.89155e-14 0)
(-1.88738e-15 -7.89181e-14 0)
(-1.88738e-15 -7.88817e-14 0)
(-1.55431e-15 -7.8919e-14 0)
(-1.88738e-15 -7.89726e-14 0)
(-1.66533e-15 -7.89239e-14 0)
(-1.66533e-15 -7.88166e-14 0)
(-1.88738e-15 -7.8763e-14 0)
(-2.10942e-15 -7.87394e-14 0)
(-1.88738e-15 -7.87277e-14 0)
(-1.66533e-15 -7.87685e-14 0)
(-1.66533e-15 -7.86655e-14 0)
(-1.55431e-15 -7.87541e-14 0)
(-6.32827e-15 -9.69473e-14 0)
(-1.33227e-15 -7.50684e-14 0)
(-2.33147e-15 -7.95949e-14 0)
(-1.44329e-15 -7.86507e-14 0)
(-1.22125e-15 -7.90068e-14 0)
(-8.88178e-16 -7.89559e-14 0)
(-9.99201e-16 -7.89782e-14 0)
(-7.77156e-16 -7.892e-14 0)
(-9.99201e-16 -7.87559e-14 0)
(-1.22125e-15 -7.87625e-14 0)
(-1.44329e-15 -7.88139e-14 0)
(-1.66533e-15 -7.8914e-14 0)
(-2.10942e-15 -7.88944e-14 0)
(-1.88738e-15 -7.87816e-14 0)
(-2.10942e-15 -7.88088e-14 0)
(-1.88738e-15 -7.88733e-14 0)
(-1.66533e-15 -7.88703e-14 0)
(-1.88738e-15 -7.88813e-14 0)
(-1.88738e-15 -7.88002e-14 0)
(-1.66533e-15 -7.87397e-14 0)
(8.54872e-15 -6.639e-14 0)
(-2.55351e-15 -8.14318e-14 0)
(-3.33067e-16 -7.85178e-14 0)
(-1.33227e-15 -7.91364e-14 0)
(-1.33227e-15 -7.89757e-14 0)
(-1.88738e-15 -7.89657e-14 0)
(-1.55431e-15 -7.88529e-14 0)
(-1.88738e-15 -7.87927e-14 0)
(-1.88738e-15 -7.86825e-14 0)
(-1.55431e-15 -7.8638e-14 0)
(-1.22125e-15 -7.86745e-14 0)
(-1.22125e-15 -7.86303e-14 0)
(-1.22125e-15 -7.86525e-14 0)
(-1.22125e-15 -7.87213e-14 0)
(-1.22125e-15 -7.88629e-14 0)
(-1.55431e-15 -7.88623e-14 0)
(-1.55431e-15 -7.88535e-14 0)
(-1.66533e-15 -7.87745e-14 0)
(-1.55431e-15 -7.88275e-14 0)
(-1.66533e-15 -7.88183e-14 0)
(-1.76525e-14 -8.59984e-14 0)
(1.22125e-15 -7.79512e-14 0)
(-2.9976e-15 -7.90198e-14 0)
(-1.44329e-15 -7.86787e-14 0)
(-2.10942e-15 -7.87536e-14 0)
(-1.88738e-15 -7.88091e-14 0)
(-2.10942e-15 -7.87558e-14 0)
(-2.10942e-15 -7.88982e-14 0)
(-2.10942e-15 -7.90608e-14 0)
(-1.88738e-15 -7.89946e-14 0)
(-2.10942e-15 -7.89483e-14 0)
(-2.10942e-15 -7.88353e-14 0)
(-2.10942e-15 -7.87586e-14 0)
(-1.88738e-15 -7.87796e-14 0)
(-1.66533e-15 -7.87437e-14 0)
(-1.88738e-15 -7.87448e-14 0)
(-1.66533e-15 -7.87882e-14 0)
(-2.10942e-15 -7.88065e-14 0)
(-1.88738e-15 -7.88768e-14 0)
(-1.66533e-15 -7.88973e-14 0)
(1.16573e-14 -9.45592e-14 0)
(-3.21965e-15 -7.55068e-14 0)
(-3.33067e-16 -7.95497e-14 0)
(-1.88738e-15 -7.85963e-14 0)
(-1.33227e-15 -7.89083e-14 0)
(-1.44329e-15 -7.88725e-14 0)
(-1.11022e-15 -7.88819e-14 0)
(-8.88178e-16 -7.88912e-14 0)
(-1.11022e-15 -7.89306e-14 0)
(-1.22125e-15 -7.88768e-14 0)
(-1.11022e-15 -7.87686e-14 0)
(-1.33227e-15 -7.87745e-14 0)
(-1.33227e-15 -7.88086e-14 0)
(-1.22125e-15 -7.88693e-14 0)
(-1.44329e-15 -7.87665e-14 0)
(-1.33227e-15 -7.87879e-14 0)
(-1.55431e-15 -7.87745e-14 0)
(-1.22125e-15 -7.88327e-14 0)
(-1.55431e-15 -7.88851e-14 0)
(-1.55431e-15 -7.88597e-14 0)
(-1.05471e-14 -3.66503e-14 0)
(-5.55112e-16 -8.71335e-14 0)
(-2.9976e-15 -7.68574e-14 0)
(-1.88738e-15 -7.93035e-14 0)
(-2.10942e-15 -7.88997e-14 0)
(-2.10942e-15 -7.89979e-14 0)
(-1.88738e-15 -7.90219e-14 0)
(-2.10942e-15 -7.89699e-14 0)
(-1.88738e-15 -7.89238e-14 0)
(-1.88738e-15 -7.88494e-14 0)
(-2.10942e-15 -7.86669e-14 0)
(-2.10942e-15 -7.86912e-14 0)
(-1.55431e-15 -7.87976e-14 0)
(-1.66533e-15 -7.87927e-14 0)
(-1.66533e-15 -7.87342e-14 0)
(-1.66533e-15 -7.87185e-14 0)
(-1.88738e-15 -7.87211e-14 0)
(-1.66533e-15 -7.87796e-14 0)
(-1.66533e-15 -7.87562e-14 0)
(-1.55431e-15 -7.8749e-14 0)
(-4.77396e-15 -1.26651e-13 0)
(-1.33227e-15 -6.94774e-14 0)
(-2.77556e-15 -8.11191e-14 0)
(-1.55431e-15 -7.852e-14 0)
(-2.10942e-15 -7.89447e-14 0)
(-2.33147e-15 -7.88714e-14 0)
(-2.33147e-15 -7.89374e-14 0)
(-2.33147e-15 -7.88845e-14 0)
(-2.77556e-15 -7.89365e-14 0)
(-2.33147e-15 -7.89641e-14 0)
(-2.33147e-15 -7.89267e-14 0)
(-1.88738e-15 -7.89263e-14 0)
(-1.88738e-15 -7.89702e-14 0)
(-1.88738e-15 -7.89266e-14 0)
(-2.10942e-15 -7.89045e-14 0)
(-1.88738e-15 -7.8864e-14 0)
(-1.88738e-15 -7.88076e-14 0)
(-1.66533e-15 -7.88094e-14 0)
(-1.88738e-15 -7.88758e-14 0)
(-1.88738e-15 -7.88425e-14 0)
(-1.22125e-15 -6.31377e-14 0)
(-2.22045e-16 -8.25203e-14 0)
(-4.44089e-16 -7.80955e-14 0)
(-1.33227e-15 -7.90546e-14 0)
(-1.22125e-15 -7.86912e-14 0)
(-1.22125e-15 -7.87764e-14 0)
(-1.33227e-15 -7.89437e-14 0)
(-1.22125e-15 -7.89145e-14 0)
(-8.88178e-16 -7.88961e-14 0)
(-1.22125e-15 -7.89724e-14 0)
(-1.22125e-15 -7.90792e-14 0)
(-1.22125e-15 -7.90142e-14 0)
(-1.11022e-15 -7.8937e-14 0)
(-1.22125e-15 -7.87957e-14 0)
(-1.22125e-15 -7.88112e-14 0)
(-1.22125e-15 -7.87919e-14 0)
(-1.66533e-15 -7.87391e-14 0)
(-1.66533e-15 -7.87612e-14 0)
(-1.55431e-15 -7.89428e-14 0)
(-1.33227e-15 -7.89458e-14 0)
(-1.33227e-15 -4.25427e-14 0)
(-2.77556e-15 -8.61913e-14 0)
(-2.10942e-15 -7.71485e-14 0)
(-1.88738e-15 -7.91871e-14 0)
(-2.10942e-15 -7.87882e-14 0)
(-1.66533e-15 -7.8885e-14 0)
(-1.44329e-15 -7.89068e-14 0)
(-1.88738e-15 -7.89216e-14 0)
(-1.88738e-15 -7.88523e-14 0)
(-1.88738e-15 -7.88936e-14 0)
(-2.10942e-15 -7.89891e-14 0)
(-2.10942e-15 -7.89992e-14 0)
(-2.10942e-15 -7.88846e-14 0)
(-2.33147e-15 -7.87538e-14 0)
(-2.10942e-15 -7.87221e-14 0)
(-1.88738e-15 -7.87163e-14 0)
(-1.88738e-15 -7.87713e-14 0)
(-1.44329e-15 -7.8844e-14 0)
(-1.55431e-15 -7.88727e-14 0)
(-1.55431e-15 -7.88502e-14 0)
(4.44089e-15 -1.16495e-13 0)
(-3.44169e-15 -7.11713e-14 0)
(-2.33147e-15 -8.06387e-14 0)
(-2.33147e-15 -7.85005e-14 0)
(-2.10942e-15 -7.90416e-14 0)
(-2.10942e-15 -7.89901e-14 0)
(-2.10942e-15 -7.88263e-14 0)
(-2.10942e-15 -7.87881e-14 0)
(-2.10942e-15 -7.88927e-14 0)
(-2.10942e-15 -7.89175e-14 0)
(-2.10942e-15 -7.88948e-14 0)
(-2.10942e-15 -7.89734e-14 0)
(-2.10942e-15 -7.89221e-14 0)
(-1.88738e-15 -7.89657e-14 0)
(-1.66533e-15 -7.8915e-14 0)
(-1.88738e-15 -7.8973e-14 0)
(-1.66533e-15 -7.89797e-14 0)
(-1.55431e-15 -7.89114e-14 0)
(-1.66533e-15 -7.88401e-14 0)
(-1.66533e-15 -7.8826e-14 0)
(-1.11022e-15 -9.164e-14 0)
(-1.11022e-15 -7.67575e-14 0)
(-6.66134e-16 -7.9292e-14 0)
(-8.88178e-16 -7.87773e-14 0)
(-8.88178e-16 -7.89277e-14 0)
(-1.11022e-15 -7.89505e-14 0)
(-1.11022e-15 -7.88607e-14 0)
(-1.11022e-15 -7.882e-14 0)
(-9.99201e-16 -7.89174e-14 0)
(-1.22125e-15 -7.89239e-14 0)
(-1.22125e-15 -7.88867e-14 0)
(-1.33227e-15 -7.89182e-14 0)
(-1.22125e-15 -7.88973e-14 0)
(-1.22125e-15 -7.89152e-14 0)
(-1.33227e-15 -7.88984e-14 0)
(-1.44329e-15 -7.89487e-14 0)
(-1.55431e-15 -7.89155e-14 0)
(-1.66533e-15 -7.88615e-14 0)
(-1.66533e-15 -7.8852e-14 0)
(-1.66533e-15 -7.88615e-14 0)
)
;

boundaryField
{
    movingWall
    {
        type            calculated;
        value           uniform (-1.66533e-15 -7.88535e-14 0);
    }
    fixedWalls
    {
        type            calculated;
        value           uniform (-1.66533e-15 -7.88535e-14 0);
    }
    frontAndBack
    {
        type            empty;
    }
}


// ************************************************************************* //
