/*--------------------------------*- C++ -*----------------------------------*\
| =========                 |                                                 |
| \\      /  F ield         | OpenFOAM: The Open Source CFD Toolbox           |
|  \\    /   O peration     | Version:  2506                                  |
|   \\  /    A nd           | Website:  www.openfoam.com                      |
|    \\/     M anipulation  |                                                 |
\*---------------------------------------------------------------------------*/
FoamFile
{
    version     2.0;
    format      ascii;
    arch        "LSB;label=32;scalar=64";
    class       volScalarField;
    location    "8.125";
    object      divU;
}
// * * * * * * * * * * * * * * * * * * * * * * * * * * * * * * * * * * * * * //

dimensions      [0 0 -1 0 0 0 0];

internalField   nonuniform List<scalar> 
400
(
8.61941e-12
-1.65443e-12
4.03254e-13
-1.75035e-13
4.44675e-14
-9.80212e-15
4.55715e-14
-6.88758e-15
-6.22934e-14
1.21871e-14
3.062e-15
1.46871e-14
4.05741e-15
-2.68536e-15
4.50015e-16
-1.30078e-14
-1.1631e-14
1.82232e-14
-7.84754e-16
-2.71051e-14
-1.35254e-11
2.46195e-12
-4.8556e-13
1.29558e-13
-2.85162e-14
-4.78273e-14
-3.08266e-14
6.28368e-14
-8.70394e-15
1.77292e-14
1.27545e-15
-2.13289e-14
-3.37437e-15
4.4822e-14
-5.08031e-15
-1.16966e-14
-2.20892e-14
6.27418e-16
-1.75645e-14
5.42101e-14
3.71339e-12
-8.6086e-13
1.83181e-13
-9.93092e-14
-3.23413e-15
1.10988e-14
7.70799e-15
5.89105e-15
3.16786e-14
-3.81624e-14
-1.87008e-14
3.65221e-15
-1.07239e-14
-1.31632e-14
-5.38437e-14
-6.09031e-15
1.14513e-14
5.08789e-15
5.11691e-17
-2.71051e-14
3.95734e-12
-2.3313e-13
2.22879e-14
3.81305e-14
-3.16247e-14
1.08856e-15
-9.39382e-15
4.25481e-14
-3.5138e-14
-6.06975e-15
2.47045e-14
7.11867e-14
-5.82935e-14
3.59789e-14
3.2265e-14
5.41745e-15
2.99467e-14
-7.82648e-15
4.09113e-15
0
-5.77338e-12
9.02668e-13
-1.99116e-13
8.46201e-14
-3.65721e-14
5.64674e-15
3.85409e-14
1.64049e-14
9.78207e-15
-8.41067e-15
-3.34774e-15
-3.31581e-14
-3.30232e-14
-1.81865e-14
-1.06266e-14
-6.31691e-15
-1.59407e-14
2.47893e-14
-9.94685e-15
0
5.12286e-12
-8.02143e-13
1.58201e-13
-4.6948e-14
-1.8676e-15
-3.44841e-15
2.27158e-14
1.12672e-14
-6.05586e-14
7.44048e-15
1.53667e-14
-1.64307e-14
-8.90903e-15
5.4643e-14
-4.57647e-15
2.17744e-14
3.36337e-14
-2.51496e-14
3.01957e-14
-2.71051e-14
6.77626e-13
-3.67328e-13
7.31302e-14
-1.79884e-14
-2.25338e-14
-3.04981e-15
-5.11999e-14
5.0705e-14
2.41078e-14
3.49636e-14
-3.84769e-14
6.94354e-15
-1.01431e-14
-1.09154e-15
-4.0898e-14
-4.26223e-14
3.45713e-15
9.37911e-15
1.43616e-14
0
-7.91468e-12
1.93636e-12
-4.08692e-13
1.68462e-13
3.32262e-16
6.78304e-15
7.7684e-15
7.95098e-15
8.70231e-15
1.04586e-14
-3.48979e-14
1.66107e-14
-2.9531e-14
1.63821e-14
3.8357e-14
5.26447e-14
1.53611e-14
1.35643e-16
3.62655e-15
-2.71051e-14
6.39679e-12
-1.84989e-12
3.72539e-13
-1.79147e-13
4.60296e-14
-1.06687e-14
1.1122e-14
1.08953e-14
1.35061e-14
9.44981e-15
1.05958e-14
-5.16825e-14
-1.21761e-14
1.75615e-14
1.79837e-14
-1.94456e-14
-5.56153e-14
1.02876e-15
1.14345e-14
0
7.86047e-13
2.25605e-13
-3.67115e-14
1.63081e-14
-2.16541e-14
-2.9854e-14
-1.20863e-14
1.42661e-14
3.30128e-15
6.04918e-14
2.45285e-14
9.14587e-15
-1.11268e-14
1.08837e-14
-6.77851e-14
3.65377e-14
-1.61983e-14
3.2831e-14
2.41343e-14
-2.71051e-14
-3.03577e-12
8.25415e-13
-1.76083e-13
7.33131e-14
2.66674e-14
3.27525e-14
-1.24102e-14
-5.65947e-16
-2.73438e-14
-2.35624e-14
-5.23289e-15
-3.79358e-14
-1.10903e-14
2.04179e-14
3.54167e-15
2.42437e-14
5.25389e-14
-4.9078e-14
-1.91778e-14
5.42101e-14
2.03288e-12
-1.14338e-12
1.79575e-13
-1.46327e-13
-2.93287e-14
2.03295e-14
9.83829e-15
-5.25969e-14
2.34815e-14
3.45459e-14
8.42824e-15
-2.95423e-15
2.4892e-15
-6.48735e-15
-1.7055e-14
-1.71099e-14
6.53861e-15
-1.44913e-14
2.69143e-16
-2.71051e-14
-4.14707e-12
2.07831e-12
-3.57304e-13
1.2452e-13
-4.96992e-14
-2.4565e-14
6.94009e-15
-8.23168e-15
-2.84369e-14
1.06675e-14
-2.80878e-14
-1.73728e-14
1.39865e-14
3.29198e-14
-3.45226e-14
7.16458e-14
-3.97721e-14
6.78547e-15
4.87196e-14
0
6.09864e-12
-2.09253e-12
3.19721e-13
-1.81908e-13
4.41101e-14
-1.63431e-14
6.16432e-14
-1.54055e-14
-4.18382e-14
2.51875e-14
2.7157e-14
-2.96844e-15
1.00851e-14
-2.25985e-14
-6.46922e-15
-7.04747e-15
-5.96094e-15
9.47056e-15
-2.05317e-14
-2.71051e-14
-4.01155e-12
1.38355e-12
-3.52214e-13
1.50981e-13
-4.0836e-14
1.08768e-14
1.88456e-15
1.23715e-14
3.88895e-14
-1.06452e-14
-4.28672e-14
8.95329e-15
4.81337e-14
-1.22533e-15
-2.02685e-14
-1.46518e-14
-9.27528e-15
1.18082e-14
3.46128e-14
-2.71051e-14
-2.90024e-12
6.52247e-13
-1.2365e-13
4.03466e-14
7.11489e-15
-2.11802e-14
9.70445e-15
-3.62916e-14
1.45546e-14
3.12646e-14
2.43241e-14
3.76043e-15
-2.00153e-14
-1.52299e-15
-2.79662e-14
3.2222e-14
4.31322e-14
-4.05622e-14
-1.11515e-14
5.42101e-14
8.5923e-12
-1.58835e-12
3.00516e-13
-1.61889e-13
4.98701e-14
4.56268e-15
1.27645e-14
4.1306e-14
-3.12347e-14
-1.58977e-14
-9.02054e-15
-3.53494e-15
1.56503e-14
1.57572e-14
1.73825e-14
-7.21588e-15
-6.16588e-14
1.01857e-14
1.62678e-14
-5.42101e-14
-5.42101e-12
1.03733e-12
-1.43544e-13
8.32527e-14
-3.93791e-14
6.45118e-14
-2.60308e-15
-5.44729e-14
-3.78844e-15
1.66978e-14
-1.76881e-14
5.45341e-16
-6.41721e-14
2.58608e-14
-2.01031e-14
1.77734e-15
2.27086e-14
4.93762e-14
-2.76771e-14
-2.71051e-14
-4.47233e-12
3.00202e-13
-1.41056e-13
9.71309e-14
-2.62276e-14
3.75259e-15
2.00355e-15
9.89914e-15
-1.03035e-14
-1.34356e-14
1.96619e-14
8.64905e-15
-1.1236e-14
9.72133e-15
-1.06307e-14
3.2745e-14
-1.88092e-14
-6.58809e-15
1.49616e-15
0
5.14996e-12
-9.21572e-13
2.43945e-13
-8.13152e-14
0
0
0
2.71051e-14
-2.71051e-14
-2.71051e-14
0
0
2.71051e-14
2.71051e-14
-2.71051e-14
0
0
0
0
0
)
;

boundaryField
{
    movingWall
    {
        type            extrapolatedCalculated;
        value           nonuniform List<scalar> 
20
(
5.14996e-12
-9.21572e-13
2.43945e-13
-8.13152e-14
0
0
0
2.71051e-14
-2.71051e-14
-2.71051e-14
0
0
2.71051e-14
2.71051e-14
-2.71051e-14
0
0
0
0
0
)
;
    }
    fixedWalls
    {
        type            extrapolatedCalculated;
        value           nonuniform List<scalar> 
60
(
8.61941e-12
-1.35254e-11
3.71339e-12
3.95734e-12
-5.77338e-12
5.12286e-12
6.77626e-13
-7.91468e-12
6.39679e-12
7.86047e-13
-3.03577e-12
2.03288e-12
-4.14707e-12
6.09864e-12
-4.01155e-12
-2.90024e-12
8.5923e-12
-5.42101e-12
-4.47233e-12
5.14996e-12
-2.71051e-14
5.42101e-14
-2.71051e-14
0
0
-2.71051e-14
0
-2.71051e-14
0
-2.71051e-14
5.42101e-14
-2.71051e-14
0
-2.71051e-14
-2.71051e-14
5.42101e-14
-5.42101e-14
-2.71051e-14
0
0
8.61941e-12
-1.65443e-12
4.03254e-13
-1.75035e-13
4.44675e-14
-9.80212e-15
4.55715e-14
-6.88758e-15
-6.22934e-14
1.21871e-14
3.062e-15
1.46871e-14
4.05741e-15
-2.68536e-15
4.50015e-16
-1.30078e-14
-1.1631e-14
1.82232e-14
-7.84754e-16
-2.71051e-14
)
;
    }
    frontAndBack
    {
        type            empty;
    }
}


// ************************************************************************* //
