/*--------------------------------*- C++ -*----------------------------------*\
| =========                 |                                                 |
| \\      /  F ield         | OpenFOAM: The Open Source CFD Toolbox           |
|  \\    /   O peration     | Version:  2506                                  |
|   \\  /    A nd           | Website:  www.openfoam.com                      |
|    \\/     M anipulation  |                                                 |
\*---------------------------------------------------------------------------*/
FoamFile
{
    version     2.0;
    format      ascii;
    arch        "LSB;label=32;scalar=64";
    class       volScalarField;
    location    "8.125";
    object      enstrophyField;
}
// * * * * * * * * * * * * * * * * * * * * * * * * * * * * * * * * * * * * * //

dimensions      [0 0 -2 0 0 0 0];

internalField   nonuniform List<scalar> 
400
(
1.70103e-23
2.74245e-23
1.06853e-24
8.41655e-26
2.78462e-28
6.14855e-28
2.11154e-27
6.61034e-30
2.92191e-30
1.30698e-27
1.48792e-27
2.09999e-27
1.80774e-27
8.75838e-28
5.49625e-28
1.074e-27
1.4094e-29
1.76797e-27
1.70875e-29
4.81942e-29
1.06509e-25
1.07959e-25
1.62277e-26
3.68642e-30
3.82146e-27
4.08439e-27
1.85175e-28
1.3071e-27
1.57526e-29
8.29013e-29
2.33026e-30
1.53182e-28
7.27253e-30
2.63287e-27
1.34026e-28
8.89339e-30
7.00174e-31
1.56385e-29
9.18211e-29
3.78431e-33
5.95939e-24
1.43143e-23
7.67081e-25
4.41429e-26
1.1505e-27
9.17357e-28
9.72656e-28
1.80807e-30
2.37537e-27
3.66063e-27
2.33395e-27
2.91567e-27
1.06183e-27
2.09083e-27
4.45157e-27
2.2446e-27
8.28354e-28
1.52783e-27
2.70984e-29
2.65464e-28
4.24892e-24
6.75264e-24
3.95033e-25
1.71846e-26
1.24782e-27
5.08532e-28
2.41667e-27
6.01189e-27
1.72689e-27
1.80978e-28
1.3778e-27
1.30996e-27
1.35447e-27
1.54517e-29
5.81265e-28
4.60068e-28
2.71265e-30
5.33776e-29
5.32859e-28
2.93004e-28
8.79685e-25
5.35781e-25
2.83516e-26
1.69705e-27
9.96993e-27
1.32386e-26
5.60303e-27
5.59963e-27
7.85934e-27
3.03998e-28
1.17298e-27
1.22524e-27
1.41787e-28
7.56774e-29
6.24616e-30
4.14368e-31
7.22751e-28
1.20487e-28
3.76965e-28
1.06277e-28
1.02573e-24
1.7766e-24
1.11158e-25
6.31492e-27
3.22008e-29
1.1566e-27
1.9473e-27
8.61694e-27
2.69771e-27
9.47334e-28
1.94331e-27
1.58752e-27
3.18452e-28
6.02016e-28
6.28005e-28
2.18002e-28
7.4288e-29
1.56124e-29
5.60028e-28
1.96732e-29
7.01288e-24
8.11477e-24
4.31096e-25
1.3453e-26
1.03529e-26
3.60468e-27
3.85742e-27
3.49476e-27
3.64232e-27
1.40054e-29
1.2158e-27
3.48826e-28
3.50564e-29
5.52917e-27
8.04462e-28
2.04708e-27
2.91072e-29
3.11381e-28
1.81906e-29
1.27007e-28
2.09737e-24
1.24286e-24
9.84251e-26
2.337e-27
5.18682e-27
1.76203e-27
1.87176e-27
6.26602e-28
1.09893e-27
9.0288e-29
7.93514e-30
1.44069e-31
5.72131e-32
1.49049e-27
3.76259e-28
3.15386e-33
1.46944e-29
3.83213e-29
4.47754e-28
1.17759e-27
3.15958e-24
3.93495e-24
2.45562e-25
1.13888e-26
1.57785e-29
7.92527e-29
3.31477e-29
1.01163e-27
1.16217e-29
4.47991e-28
8.89204e-27
2.48087e-28
3.82868e-28
2.26122e-27
4.49783e-29
3.65544e-27
3.0105e-27
5.68554e-28
4.60547e-29
3.55052e-30
1.09667e-23
7.00015e-24
4.12119e-25
1.60699e-26
6.57308e-29
2.78277e-27
8.31842e-28
1.86389e-27
1.29207e-27
3.69579e-28
1.62262e-28
3.53996e-28
4.69635e-27
2.47131e-27
6.7441e-27
3.59915e-27
4.23601e-30
1.93675e-29
1.03945e-30
1.55979e-27
4.50887e-24
1.80096e-24
1.21898e-25
1.05692e-29
6.25386e-27
4.07587e-30
1.28103e-27
2.47154e-28
1.23953e-28
5.41221e-28
8.92762e-28
1.93837e-27
8.3919e-28
1.71901e-28
4.09374e-27
3.82516e-27
3.16819e-31
1.87357e-27
1.00174e-28
5.40438e-29
2.20463e-24
1.06102e-24
4.02588e-26
1.04847e-27
4.83955e-27
7.28396e-27
1.16775e-26
1.16386e-26
1.13996e-26
1.51313e-27
1.51179e-27
1.59082e-27
4.13913e-29
2.21263e-28
2.3338e-27
4.40029e-31
1.6773e-28
3.36587e-30
9.62752e-30
1.87103e-29
4.25416e-25
2.82801e-25
2.64644e-27
3.26709e-27
8.50322e-29
1.48107e-27
4.07026e-27
9.65015e-27
4.13651e-27
1.25684e-28
1.26929e-28
1.79932e-28
1.54867e-29
1.11318e-30
4.67941e-28
4.97847e-28
1.90396e-29
1.98917e-27
4.12314e-29
2.08116e-28
1.88301e-24
1.42919e-24
4.77244e-26
7.00339e-27
3.81534e-28
3.49683e-30
1.73369e-30
1.18666e-29
3.29475e-28
1.3128e-28
5.23971e-29
8.00342e-30
2.0284e-27
2.62117e-28
3.30798e-29
3.89343e-28
2.5596e-28
2.13039e-27
3.6375e-30
7.14394e-30
1.25933e-23
8.97842e-24
5.55515e-25
3.33946e-26
6.25778e-27
2.38731e-27
6.18494e-27
6.98924e-27
1.52571e-26
8.9923e-27
4.71735e-27
2.32863e-27
9.70773e-28
1.83327e-27
3.93671e-27
1.54114e-27
1.15692e-27
1.28544e-27
1.63996e-27
2.39297e-29
1.13466e-23
1.02429e-23
6.90681e-25
1.33234e-26
6.78053e-27
3.24723e-27
4.03566e-28
3.29881e-27
3.98544e-27
3.2271e-27
3.00575e-27
6.35837e-27
1.47108e-27
2.1082e-28
1.14954e-27
1.51728e-28
1.18816e-27
2.32276e-29
1.65448e-27
3.37505e-28
3.6341e-25
9.25142e-25
4.27378e-26
1.44078e-29
3.86976e-28
3.15635e-27
7.46967e-27
2.49635e-28
6.52248e-27
1.03138e-27
8.73792e-30
8.53837e-28
1.19845e-27
7.8757e-28
7.16389e-32
2.59433e-29
4.70756e-30
1.1266e-27
1.03792e-27
4.01029e-29
2.71002e-24
4.91513e-24
3.96186e-25
3.41532e-27
6.21915e-27
4.66163e-27
5.48731e-27
6.48324e-27
6.18505e-27
4.48754e-27
2.50302e-27
4.21059e-27
8.83975e-27
4.7599e-27
1.67989e-27
2.91739e-27
8.15608e-29
5.13169e-29
3.50679e-28
1.5563e-27
4.56942e-24
5.95168e-24
4.2565e-25
1.31519e-27
1.70161e-26
5.33859e-28
1.86748e-27
6.61892e-27
4.4425e-27
3.32369e-27
3.77631e-27
3.53144e-27
3.24364e-27
5.80078e-27
5.95709e-27
1.84098e-27
2.19333e-28
8.42971e-28
3.64391e-29
8.36262e-30
7.66046e-26
6.04202e-25
1.09186e-26
2.01875e-27
6.80422e-28
2.24246e-29
8.06242e-28
2.29698e-28
1.39703e-28
4.73311e-30
1.62579e-31
5.69348e-31
4.5247e-32
3.64518e-28
1.2934e-27
1.46134e-30
6.41585e-28
2.01628e-29
4.66829e-36
2.05854e-31
)
;

boundaryField
{
    movingWall
    {
        type            calculated;
        value           nonuniform List<scalar> 
20
(
3.58706e-25
1.0612e-24
1.95419e-26
6.03082e-26
4.30834e-26
2.61614e-26
2.76349e-26
2.34087e-26
3.27844e-26
1.63285e-26
1.58787e-26
8.73309e-27
1.58307e-26
1.57587e-26
8.43406e-27
3.79392e-27
1.41114e-27
2.01628e-29
4.66829e-36
2.05854e-31
)
;
    }
    fixedWalls
    {
        type            calculated;
        value           nonuniform List<scalar> 
60
(
4.83845e-22
1.97613e-24
2.45216e-22
1.25193e-22
1.13704e-23
3.16196e-23
1.5144e-22
2.52995e-23
7.39047e-23
1.42439e-22
3.88045e-23
1.85849e-23
4.98048e-24
2.4409e-23
1.71265e-22
2.00815e-22
1.7606e-23
9.73728e-23
1.1376e-22
9.8434e-24
3.64602e-28
1.13376e-28
6.96225e-28
9.44684e-28
1.2315e-28
3.42853e-28
8.4301e-30
2.36788e-27
8.49724e-29
2.23626e-27
1.69506e-28
9.90803e-29
4.61513e-29
3.05775e-30
1.08087e-28
4.96683e-28
4.79744e-29
1.39816e-27
6.04413e-29
5.07942e-30
1.56815e-23
3.02711e-23
3.10654e-25
1.93769e-25
2.71569e-26
5.08246e-26
3.26857e-26
4.7194e-26
1.62096e-26
4.22291e-27
3.91406e-27
3.05923e-27
7.40744e-28
1.61119e-27
2.2166e-28
3.09178e-29
1.4094e-29
1.38005e-29
3.44217e-27
4.81942e-29
)
;
    }
    frontAndBack
    {
        type            empty;
    }
}


// ************************************************************************* //
