/*--------------------------------*- C++ -*----------------------------------*\
| =========                 |                                                 |
| \\      /  F ield         | OpenFOAM: The Open Source CFD Toolbox           |
|  \\    /   O peration     | Version:  2506                                  |
|   \\  /    A nd           | Website:  www.openfoam.com                      |
|    \\/     M anipulation  |                                                 |
\*---------------------------------------------------------------------------*/
FoamFile
{
    version     2.0;
    format      ascii;
    arch        "LSB;label=32;scalar=64";
    class       volScalarField;
    location    "8.125";
    object      flowTypeField;
}
// * * * * * * * * * * * * * * * * * * * * * * * * * * * * * * * * * * * * * //

dimensions      [0 0 0 0 0 0 0];

internalField   nonuniform List<scalar> 
400
(
0.400328
0.0369169
0.0815781
-0.0771146
0.704771
0.166324
-0.0110819
0.836137
0.948761
0.0774476
-0.00462231
-0.144078
0.114015
0.332329
0.383413
0.163512
0.4988
0.031938
0.00790373
0.606575
0.953412
0.797267
0.665259
0.967836
-0.0454849
0.0872794
0.453431
0.430565
0.00536708
0.074844
0.168849
0.100397
0.448963
0.0791638
0.049321
0.0380534
0.78314
0.762495
0.325719
0.980505
0.372949
0.0483993
-0.0332843
-0.168868
0.191682
-0.51617
-0.387777
0.315899
0.122842
0.00312703
-0.0946772
0.0606726
0.15461
-0.186882
0.0432309
-0.224538
-0.418038
-0.0159952
0.329895
0.143024
0.447441
0.0813959
-0.0320298
0.0470224
0.323998
-0.0914316
-0.203172
-0.0636853
0.119819
0.695974
0.137824
0.308612
0.292282
0.851111
0.122542
-0.0237196
0.7976
0.607357
-0.183375
0.0325138
0.73192
0.348405
0.345721
0.499378
-0.229782
-0.153366
0.126268
-0.212112
-0.137604
0.00434242
0.000188381
-0.116205
0.511578
0.517935
0.818111
0.930283
0.0631862
0.450018
0.288198
0.599723
0.688247
0.148275
0.0150053
0.0711175
0.768669
0.122177
-0.121813
-0.179912
0.430057
0.375854
-0.0787483
-0.0200785
0.428803
0.390214
-0.257681
0.409443
0.525504
0.727534
0.168565
0.837811
-0.0741089
0.0155305
-0.166867
0.148734
-0.267244
-0.0437892
0.10049
0.144427
0.142371
0.735741
0.174461
0.00952882
0.00981178
-0.290378
0.0327123
-0.028288
0.0645133
0.106639
0.449636
0.405708
0.669771
0.244865
0.0690993
0.452788
-0.248126
-0.0749297
-0.122124
-0.171571
0.150358
0.0171628
0.758864
0.947663
0.949753
0.104211
0.53073
0.98043
0.50017
0.667445
0.0558899
-0.108652
0.527247
0.104483
-0.051526
0.293493
0.765116
0.530125
0.0674732
0.169094
0.240927
0.000554221
-0.178804
0.406222
0.0378804
-0.0878093
0.16246
-0.292084
0.0387803
-0.237016
0.196271
0.88937
-0.320388
-0.0194196
-0.279769
0.000506468
0.306751
-0.261751
-0.0686105
0.0644551
0.0764425
0.492885
0.38253
0.0443878
-0.19008
-0.188021
0.14627
0.0110564
0.715662
0.847384
0.907152
-0.182255
0.105607
-0.0340178
-0.207114
0.946838
-0.0402732
0.916596
0.0654454
0.115185
0.678116
0.444625
0.111039
0.359775
0.35358
0.337244
-0.102586
-0.00753643
0.962847
0.188798
0.300752
0.779204
-0.0174882
0.0516237
-0.0207429
0.619329
0.0381465
-0.10132
-0.110209
-0.0386704
-0.00718355
0.283162
0.107859
-0.0289376
0.382582
4.36449e-05
-0.0959539
0.926534
0.337828
0.849442
0.417283
0.554476
0.654277
0.516168
0.677638
0.268777
0.703714
0.106117
-0.107842
-0.272344
-0.0647754
0.591828
0.45389
0.184109
0.756699
0.946616
0.447868
0.432014
0.838744
-0.153603
0.777859
0.247816
0.574855
0.188093
0.197072
0.198297
0.499041
0.783023
0.958658
0.363887
0.525392
0.227387
0.585
0.80787
-0.0364479
0.360706
0.00617264
-0.0239733
0.181557
-0.199656
0.852485
0.817041
-0.00233117
-0.0221739
-0.259699
-0.0294085
-0.271375
0.148942
-0.0242894
-0.0898762
-0.0582272
-0.230219
-0.101401
0.206407
0.395612
-0.108602
-0.073845
-0.0138332
0.112684
0.0646508
0.0543342
0.779801
0.000167254
0.0118114
-0.282676
0.256907
-0.268428
0.181226
-0.00586813
0.158528
-0.0964042
0.171145
0.24577
0.0306491
0.0301097
0.236305
0.200944
0.503152
0.328728
0.823491
-0.00165903
0.530558
0.867233
0.357423
0.414152
0.944711
0.300068
-0.458795
-0.126006
0.568923
-0.0177927
-0.0554499
0.36356
-0.418875
-0.562565
-0.16196
0.92132
0.700724
0.907213
-0.0935227
-0.0725953
0.805579
0.562022
0.13508
-0.160928
0.515927
-0.219114
0.27171
0.065779
0.0642877
-0.0256595
0.126376
0.183675
-0.125817
-0.0778554
0.0287382
-0.0483775
0.121916
0.727766
0.763726
0.297261
0.0922607
0.429524
0.0810389
-0.186339
0.691915
-0.348344
0.395227
0.247244
-0.0559216
-0.153478
-0.00194745
-0.0592903
-0.0280225
0.00952476
0.0448696
0.0062668
0.223957
0.294422
-0.495528
0.0256742
0.0303978
0.898634
0.278467
0.466493
0.0644514
0.410398
0.749648
-0.461813
0.411071
0.527174
0.840293
0.796052
0.927388
0.953349
0.148575
0.16181
0.90714
0.163977
0.258671
0.598002
0.448338
)
;

boundaryField
{
    movingWall
    {
        type            calculated;
        value           nonuniform List<scalar> 
20
(
0.793178
0.0345724
0.533737
-0.106295
0.0629351
-0.00709504
-0.0584944
0.0340922
0.0477457
0.00653402
-0.000421667
0.0439315
0.0142878
0.00999715
0.0516626
0.124493
0.0841641
0.0929938
0.381147
0.591832
)
;
    }
    fixedWalls
    {
        type            calculated;
        value           nonuniform List<scalar> 
60
(
0.0461043
0.815291
0.0583233
0.0714773
0.336666
0.174859
-0.0152506
0.265051
0.11591
-0.0856101
-0.0976843
0.0778878
0.527634
0.251712
-0.0516374
-0.0356181
0.393172
0.094726
0.0571497
0.348895
0.0645457
0.782557
0.0657623
0.0106872
0.477873
0.656954
0.849808
-0.0316031
0.663566
-0.0210016
0.588896
0.293388
0.631666
0.909329
0.718248
0.605984
0.900071
0.233516
0.00490595
0.116709
0.77925
0.200313
0.595578
-0.145723
0.26253
-0.0212408
0.0498169
0.0280579
0.0946982
0.0610775
0.0536323
0.195112
0.50986
0.302531
0.284946
0.515828
0.403888
0.739111
0.0734579
0.682145
)
;
    }
    frontAndBack
    {
        type            empty;
    }
}


// ************************************************************************* //
