/*--------------------------------*- C++ -*----------------------------------*\
| =========                 |                                                 |
| \\      /  F ield         | OpenFOAM: The Open Source CFD Toolbox           |
|  \\    /   O peration     | Version:  2506                                  |
|   \\  /    A nd           | Website:  www.openfoam.com                      |
|    \\/     M anipulation  |                                                 |
\*---------------------------------------------------------------------------*/
FoamFile
{
    version     2.0;
    format      ascii;
    arch        "LSB;label=32;scalar=64";
    class       surfaceScalarField;
    location    "8.125";
    object      fluxField;
}
// * * * * * * * * * * * * * * * * * * * * * * * * * * * * * * * * * * * * * //

dimensions      [0 3 -1 0 0 0 0];

oriented        oriented;

internalField   nonuniform List<scalar> 
760
(
-5e-05
2.09559e-18
-5e-05
-4.13607e-19
-5e-05
1.00814e-19
-5e-05
-1.66538e-20
-5e-05
4.34062e-21
-5e-05
4.32573e-21
-5e-05
4.61662e-21
-5e-05
5.05437e-21
-5e-05
4.75543e-21
-5e-05
3.04678e-21
-5e-05
7.655e-22
-5e-05
3.67177e-21
-5e-05
7.79062e-21
-5e-05
6.10492e-21
-5e-05
1.12504e-22
-5e-05
-3.25194e-21
-5e-05
-2.90775e-21
-5e-05
-2.22047e-21
-5e-05
-1.96189e-22
2.62888e-21
-5e-05
-1.32931e-18
-5e-05
3.03781e-19
-5e-05
-5.36275e-20
-5e-05
1.8837e-20
-5e-05
-3.52791e-22
-5e-05
8.37198e-21
-5e-05
5.84588e-21
-5e-05
2.15668e-21
-5e-05
4.60028e-21
-5e-05
4.4323e-21
-5e-05
3.18863e-22
-5e-05
1.44404e-21
-5e-05
5.93267e-21
-5e-05
4.42924e-21
-5e-05
-1.27008e-21
-5e-05
-2.92416e-21
-5e-05
-5.5223e-21
-5e-05
-6.61941e-21
-5e-05
-4.39114e-21
-1.39108e-21
-5e-05
-4.47647e-19
-5e-05
1.03269e-19
-5e-05
-8.41475e-21
-5e-05
9.05401e-21
-5e-05
5.96773e-21
-5e-05
9.55095e-21
-5e-05
8.70326e-21
-5e-05
1.47276e-21
-5e-05
1.14339e-21
-5e-05
4.01193e-21
-5e-05
2.10105e-21
-5e-05
9.13052e-22
-5e-05
4.09528e-21
-5e-05
3.48545e-21
-5e-05
9.16022e-23
-5e-05
-1.52258e-21
-5e-05
-3.91343e-21
-5e-05
-5.50429e-21
-5e-05
-6.76347e-21
-5.0489e-21
-5e-05
7.40058e-19
-5e-05
-1.46374e-19
-5e-05
4.62296e-20
-5e-05
2.75637e-21
-5e-05
1.24226e-20
-5e-05
7.0484e-21
-5e-05
4.42781e-21
-5e-05
-2.91551e-21
-5e-05
-8.78451e-21
-5e-05
-8.2937e-21
-5e-05
-6.00145e-22
-5e-05
4.24415e-21
-5e-05
5.75542e-21
-5e-05
2.21846e-21
-5e-05
1.28999e-21
-5e-05
1.35436e-21
-5e-05
7.10411e-22
-5e-05
-1.95662e-21
-5e-05
-5.75348e-21
-3.42987e-21
-5e-05
-7.73041e-19
-5e-05
1.71457e-19
-5e-05
-2.94502e-20
-5e-05
1.43788e-20
-5e-05
4.40951e-21
-5e-05
1.41169e-21
-5e-05
-3.91731e-21
-5e-05
-2.67503e-21
-5e-05
-4.33075e-21
-5e-05
-8.87893e-21
-5e-05
-8.36935e-22
-5e-05
5.26299e-21
-5e-05
5.29673e-21
-5e-05
2.22963e-21
-5e-05
4.1196e-21
-5e-05
5.19704e-21
-5e-05
2.7911e-21
-5e-05
-5.78934e-22
-5e-05
-2.48671e-21
9.23431e-22
-5e-05
5.61897e-19
-5e-05
-9.88918e-20
-5e-05
2.59976e-20
-5e-05
-4.96074e-21
-5e-05
-4.66899e-22
-5e-05
-8.62102e-22
-5e-05
-1.09732e-21
-5e-05
2.81681e-21
-5e-05
5.18913e-21
-5e-05
1.86012e-21
-5e-05
3.84168e-21
-5e-05
2.66859e-21
-5e-05
-2.22726e-21
-5e-05
1.08233e-22
-5e-05
5.63215e-21
-5e-05
5.44361e-21
-5e-05
1.63217e-21
-5e-05
4.88856e-22
-5e-05
7.72657e-22
3.58732e-21
-5e-05
6.71934e-19
-5e-05
-1.3249e-19
-5e-05
3.18351e-20
-5e-05
-4.49711e-21
-5e-05
1.14281e-21
-5e-05
-7.62454e-22
-5e-05
7.52557e-22
-5e-05
-8.76283e-22
-5e-05
-7.49303e-22
-5e-05
1.96464e-21
-5e-05
3.93329e-21
-5e-05
1.73588e-21
-5e-05
-2.53579e-21
-5e-05
-2.72884e-22
-5e-05
3.32802e-21
-5e-05
2.89695e-21
-5e-05
8.64284e-22
-5e-05
2.34478e-21
-5e-05
3.59039e-21
4.55769e-21
-5e-05
-1.15023e-18
-5e-05
2.26592e-19
-5e-05
-5.47391e-20
-5e-05
8.23413e-21
-5e-05
8.30656e-23
-5e-05
1.69576e-21
-5e-05
1.9421e-21
-5e-05
1.98774e-21
-5e-05
2.17558e-21
-5e-05
2.61466e-21
-5e-05
-1.9482e-21
-5e-05
-2.62359e-21
-5e-05
-6.06483e-22
-5e-05
-2.68075e-21
-5e-05
-3.96328e-21
-5e-05
-3.91362e-22
-5e-05
3.84026e-21
-5e-05
6.81017e-21
-5e-05
7.6829e-21
5.11583e-21
-5e-05
2.05253e-19
-5e-05
-2.20162e-20
-5e-05
1.18195e-20
-5e-05
2.64706e-21
-5e-05
4.73114e-21
-5e-05
4.10908e-21
-5e-05
2.7805e-21
-5e-05
2.72382e-21
-5e-05
3.37652e-21
-5e-05
2.36245e-21
-5e-05
-4.12732e-21
-5e-05
-6.14436e-21
-5e-05
-3.04403e-21
-5e-05
-2.38589e-21
-5e-05
-2.28035e-21
-5e-05
1.91487e-21
-5e-05
6.42497e-21
-5e-05
7.03345e-21
-5e-05
9.6349e-21
4.99457e-21
-5e-05
5.05988e-19
-5e-05
-7.91239e-20
-5e-05
3.14797e-20
-5e-05
4.07703e-21
-5e-05
1.36274e-21
-5e-05
-6.87238e-22
-5e-05
-3.02158e-21
-5e-05
-3.20974e-21
-5e-05
8.25319e-22
-5e-05
1.57043e-21
-5e-05
-6.44138e-22
-5e-05
-4.4898e-21
-5e-05
-2.78169e-21
-5e-05
2.72092e-21
-5e-05
3.38251e-21
-5e-05
2.35817e-21
-5e-05
2.72669e-21
-5e-05
1.43149e-21
-5e-05
6.03358e-21
5.33057e-21
-5e-05
-1.40757e-19
-5e-05
3.01709e-20
-5e-05
-1.01395e-20
-5e-05
-2.00052e-21
-5e-05
-6.88568e-21
-5e-05
-5.3644e-21
-5e-05
-3.10255e-21
-5e-05
-1.41487e-22
-5e-05
6.71657e-21
-5e-05
7.66192e-21
-5e-05
5.46804e-21
-5e-05
4.06857e-21
-5e-05
4.0037e-21
-5e-05
5.10447e-21
-5e-05
8.85416e-22
-5e-05
-7.15335e-22
-5e-05
-4.17794e-22
-5e-05
1.28304e-21
-5e-05
1.9818e-21
3.72464e-21
-5e-05
1.32966e-19
-5e-05
-4.18989e-20
-5e-05
4.23612e-21
-5e-05
-2.70048e-21
-5e-05
-5.55921e-22
-5e-05
-1.69389e-21
-5e-05
2.45957e-21
-5e-05
4.033e-22
-5e-05
-9.05885e-22
-5e-05
1.86021e-21
-5e-05
2.10706e-21
-5e-05
6.03771e-21
-5e-05
7.39856e-21
-5e-05
5.15443e-21
-5e-05
2.51252e-21
-5e-05
2.49878e-21
-5e-05
1.63465e-21
-5e-05
3.15345e-21
-5e-05
6.72857e-23
-2.13792e-22
-5e-05
-5.71262e-19
-5e-05
1.06226e-19
-5e-05
-2.15634e-20
-5e-05
1.08012e-20
-5e-05
1.12774e-21
-5e-05
6.35012e-22
-5e-05
1.73502e-21
-5e-05
-2.05792e-21
-5e-05
-7.10922e-21
-5e-05
-4.1094e-21
-5e-05
-2.45676e-22
-5e-05
2.43307e-21
-5e-05
3.49663e-21
-5e-05
1.45368e-21
-5e-05
4.92188e-21
-5e-05
4.35892e-21
-5e-05
3.60951e-21
-5e-05
1.69637e-21
-5e-05
-1.37264e-21
-1.24816e-21
-5e-05
6.62439e-19
-5e-05
-1.23333e-19
-5e-05
3.24965e-20
-5e-05
-4.8193e-21
-5e-05
-2.525e-21
-5e-05
-4.08578e-21
-5e-05
-4.91798e-21
-5e-05
-3.85137e-21
-5e-05
-3.68329e-21
-5e-05
-4.79376e-22
-5e-05
6.78925e-21
-5e-05
6.03415e-21
-5e-05
2.52127e-21
-5e-05
1.12664e-21
-5e-05
5.15896e-21
-5e-05
5.01439e-21
-5e-05
5.28603e-21
-5e-05
2.36764e-21
-5e-05
1.64334e-21
2.45843e-21
-5e-05
-1.39866e-19
-5e-05
2.74025e-20
-5e-05
-6.73835e-21
-5e-05
-2.91232e-21
-5e-05
-3.43273e-21
-5e-05
-4.05706e-21
-5e-05
-6.30512e-21
-5e-05
-3.68338e-21
-5e-05
-3.83015e-21
-5e-05
-2.6613e-21
-5e-05
2.83573e-21
-5e-05
2.23832e-21
-5e-05
-1.51911e-21
-5e-05
-3.06333e-22
-5e-05
1.70914e-21
-5e-05
3.11331e-21
-5e-05
4.45744e-21
-5e-05
2.95204e-21
-5e-05
1.87694e-21
2.88878e-21
-5e-05
-8.02051e-19
-5e-05
1.42733e-19
-5e-05
-3.76889e-20
-5e-05
3.3104e-21
-5e-05
1.77872e-21
-5e-05
1.48121e-21
-5e-05
-4.35015e-21
-5e-05
-2.29665e-21
-5e-05
-3.13762e-21
-5e-05
-5.73637e-21
-5e-05
-7.47149e-21
-5e-05
-5.83616e-21
-5e-05
-5.00383e-21
-5e-05
-3.80746e-22
-5e-05
-2.15294e-22
-5e-05
1.27924e-21
-5e-05
4.00678e-21
-5e-05
3.41198e-21
-5e-05
-2.78786e-21
-2.03048e-21
-5e-05
1.30067e-18
-5e-05
-2.75115e-19
-5e-05
6.15765e-20
-5e-05
-1.33673e-20
-5e-05
5.69126e-21
-5e-05
1.14067e-21
-5e-05
-3.58514e-21
-5e-05
-3.22604e-21
-5e-05
-1.03242e-21
-5e-05
-3.97443e-21
-5e-05
-9.0314e-21
-5e-05
-7.66e-21
-5e-05
-2.86369e-21
-5e-05
3.9393e-21
-5e-05
4.34562e-21
-5e-05
4.97229e-21
-5e-05
4.91408e-21
-5e-05
2.54642e-21
-5e-05
-2.70931e-21
-2.22316e-21
-5e-05
-3.32711e-20
-5e-05
8.61084e-21
-5e-05
-2.00468e-21
-5e-05
4.84387e-22
-5e-05
-3.06851e-21
-5e-05
-4.20083e-21
-5e-05
-6.50769e-22
-5e-05
-6.57093e-23
-5e-05
-9.47111e-22
-5e-05
-2.6018e-21
-5e-05
-4.42203e-21
-5e-05
-6.63993e-21
-5e-05
-2.4905e-21
-5e-05
-3.11056e-22
-5e-05
1.7505e-21
-5e-05
4.44335e-22
-5e-05
-1.0991e-21
-5e-05
-1.20847e-21
-5e-05
-1.43018e-22
7.70278e-22
-5e-05
-1.26071e-18
-5e-05
2.44457e-19
-5e-05
-5.55928e-20
-5e-05
1.07302e-20
-5e-05
-6.55689e-21
-5e-05
-5.83812e-21
-5e-05
5.00887e-22
-5e-05
2.47479e-21
-5e-05
-2.57588e-21
-5e-05
-3.35889e-21
-5e-05
-1.86079e-21
-5e-05
-4.614e-21
-5e-05
-2.80899e-21
-5e-05
-4.34593e-21
-5e-05
-2.65767e-21
-5e-05
-5.36627e-21
-5e-05
-4.70231e-21
-5e-05
-1.64702e-21
-5e-05
3.74041e-22
4.87961e-22
-5e-05
-5e-05
-5e-05
-5e-05
-5e-05
-5e-05
-5e-05
-5e-05
-5e-05
-5e-05
-5e-05
-5e-05
-5e-05
-5e-05
-5e-05
-5e-05
-5e-05
-5e-05
-5e-05
)
;

boundaryField
{
    movingWall
    {
        type            calculated;
        value           uniform -0;
    }
    fixedWalls
    {
        type            calculated;
        value           nonuniform List<scalar> 
60
(
5e-05
5e-05
5e-05
5e-05
5e-05
5e-05
5e-05
5e-05
5e-05
5e-05
5e-05
5e-05
5e-05
5e-05
5e-05
5e-05
5e-05
5e-05
5e-05
5e-05
-5e-05
-5e-05
-5e-05
-5e-05
-5e-05
-5e-05
-5e-05
-5e-05
-5e-05
-5e-05
-5e-05
-5e-05
-5e-05
-5e-05
-5e-05
-5e-05
-5e-05
-5e-05
-5e-05
-5e-05
0
0
0
0
0
0
0
0
0
0
0
0
0
0
0
0
0
0
0
0
)
;
    }
    frontAndBack
    {
        type            empty;
    }
}


// ************************************************************************* //
