/*--------------------------------*- C++ -*----------------------------------*\
| =========                 |                                                 |
| \\      /  F ield         | OpenFOAM: The Open Source CFD Toolbox           |
|  \\    /   O peration     | Version:  2506                                  |
|   \\  /    A nd           | Website:  www.openfoam.com                      |
|    \\/     M anipulation  |                                                 |
\*---------------------------------------------------------------------------*/
FoamFile
{
    version     2.0;
    format      ascii;
    arch        "LSB;label=32;scalar=64";
    class       volTensorField;
    location    "8.125";
    object      gradU;
}
// * * * * * * * * * * * * * * * * * * * * * * * * * * * * * * * * * * * * * //

dimensions      [0 0 -1 0 0 0 0];

internalField   nonuniform List<tensor> 
400
(
(2.43945e-13 6.26639e-12 0 4.33681e-13 8.38236e-12 0 0 0 0)
(0 -7.51443e-12 0 -1.0842e-13 -1.65443e-12 0 0 0 0)
(0 1.54318e-12 0 8.13152e-14 4.03254e-13 0 0 0 0)
(-1.0842e-13 -3.56072e-13 0 5.42101e-14 -6.66151e-14 0 0 0 0)
(2.71051e-14 7.78094e-14 0 5.42101e-14 1.73625e-14 0 0 0 0)
(-2.71051e-14 -7.96217e-15 0 2.71051e-14 1.73029e-14 0 0 0 0)
(2.71051e-14 1.07751e-14 0 -5.42101e-14 1.84665e-14 0 0 0 0)
(-2.71051e-14 3.63602e-15 0 0 2.02175e-14 0 0 0 0)
(-8.13152e-14 -2.4174e-15 0 0 1.90217e-14 0 0 0 0)
(0 -3.0833e-15 0 -5.42101e-14 1.21871e-14 0 0 0 0)
(0 3.41131e-16 0 -5.42101e-14 3.062e-15 0 0 0 0)
(0 1.05972e-14 0 -5.42101e-14 1.46871e-14 0 0 0 0)
(-2.71051e-14 5.91882e-15 0 -5.42101e-14 3.11625e-14 0 0 0 0)
(-2.71051e-14 -1.23571e-14 0 -5.42101e-14 2.44197e-14 0 0 0 0)
(0 -2.10552e-14 0 -5.42101e-14 4.50015e-16 0 0 0 0)
(0 -7.86357e-15 0 -5.42101e-14 -1.30078e-14 0 0 0 0)
(0 5.30925e-15 0 0 -1.1631e-14 0 0 0 0)
(2.71051e-14 5.25366e-15 0 -5.42101e-14 -8.88189e-15 0 0 0 0)
(0 5.84594e-15 0 0 -7.84754e-16 0 0 0 0)
(-2.71051e-14 -9.81776e-15 0 0 1.05155e-14 0 0 0 0)
(1.6263e-13 4.61539e-13 0 0 -1.36996e-11 0 0 0 0)
(-4.06576e-13 -4.6467e-13 0 0 2.86955e-12 0 0 0 0)
(1.35525e-13 4.46285e-14 0 -1.35525e-13 -6.17764e-13 0 0 0 0)
(0 -2.98204e-14 0 -2.71051e-14 1.41963e-13 0 0 0 0)
(0 6.10865e-15 0 -8.13152e-14 -1.87737e-14 0 0 0 0)
(-5.42101e-14 9.06617e-15 0 -8.13152e-14 1.6185e-14 0 0 0 0)
(-2.71051e-14 -7.86057e-15 0 -2.71051e-14 4.91702e-15 0 0 0 0)
(8.13152e-14 -3.08078e-15 0 -5.42101e-14 -1.15908e-14 0 0 0 0)
(0 -5.61295e-15 0 0 -6.20618e-16 0 0 0 0)
(0 -1.28764e-14 0 0 5.54209e-15 0 0 0 0)
(0 2.15882e-15 0 0 -1.78655e-15 0 0 0 0)
(0 1.75033e-14 0 0 -8.91091e-15 0 0 0 0)
(0 3.8138e-15 0 0 -7.43179e-15 0 0 0 0)
(5.42101e-14 -1.83554e-14 0 5.42101e-14 -6.70273e-15 0 0 0 0)
(0 -1.63723e-14 0 0 -5.53033e-15 0 0 0 0)
(0 -4.21744e-15 0 0 1.31114e-15 0 0 0 0)
(0 -1.18336e-15 0 0 -1.04582e-14 0 0 0 0)
(2.71051e-14 5.59258e-15 0 0 -1.75957e-14 0 0 0 0)
(0 1.35515e-14 0 0 -1.67798e-14 0 0 0 0)
(5.42101e-14 8.69978e-17 0 0 -1.60798e-14 0 0 0 0)
(1.89735e-13 -4.56366e-12 0 -1.11131e-12 3.52666e-12 0 0 0 0)
(-5.42101e-14 5.56741e-12 0 2.1684e-13 -8.02045e-13 0 0 0 0)
(0 -1.1844e-12 0 5.42101e-14 1.80851e-13 0 0 0 0)
(-5.42101e-14 2.42919e-13 0 -5.42101e-14 -3.91319e-14 0 0 0 0)
(-2.71051e-14 -4.79687e-14 0 0 2.52821e-14 0 0 0 0)
(0 1.57285e-14 0 -2.71051e-14 4.7159e-15 0 0 0 0)
(0 -1.70006e-14 0 2.71051e-14 1.14295e-14 0 0 0 0)
(0 -1.90162e-15 0 0 -2.73566e-15 0 0 0 0)
(5.42101e-14 1.47155e-14 0 -5.42101e-14 -1.38276e-14 0 0 0 0)
(-2.71051e-14 -4.24923e-15 0 8.13152e-14 -1.68148e-15 0 0 0 0)
(-2.71051e-14 -1.41119e-14 0 5.42101e-14 7.12877e-15 0 0 0 0)
(0 4.95196e-15 0 8.13152e-14 -2.12395e-15 0 0 0 0)
(0 8.12701e-15 0 5.42101e-14 -7.34957e-15 0 0 0 0)
(0 -1.04556e-14 0 5.42101e-14 -3.77516e-15 0 0 0 0)
(-5.42101e-14 -1.30413e-14 0 8.13152e-14 5.44672e-15 0 0 0 0)
(0 -1.27914e-14 0 5.42101e-14 5.60633e-15 0 0 0 0)
(0 -1.35976e-14 0 2.71051e-14 6.43548e-15 0 0 0 0)
(0 -1.06793e-15 0 5.42101e-14 4.46047e-15 0 0 0 0)
(0 7.36185e-15 0 0 -9.48934e-15 0 0 0 0)
(0 2.30419e-14 0 0 -1.46313e-14 0 0 0 0)
(-7.86047e-13 3.18615e-12 0 2.71051e-13 4.75082e-12 0 0 0 0)
(7.58942e-13 -3.81048e-12 0 -1.35525e-13 -9.98574e-13 0 0 0 0)
(-1.89735e-13 8.07541e-13 0 -8.13152e-14 2.18577e-13 0 0 0 0)
(5.42101e-14 -1.85389e-13 0 0 -2.51906e-14 0 0 0 0)
(-5.42101e-14 4.99565e-14 0 0 2.58196e-14 0 0 0 0)
(0 -4.78638e-15 0 2.71051e-14 -1.00102e-14 0 0 0 0)
(0 -1.53121e-14 0 5.42101e-14 -1.71018e-14 0 0 0 0)
(5.42101e-14 -2.83379e-14 0 8.13152e-14 -1.75531e-14 0 0 0 0)
(0 -4.55877e-15 0 5.42101e-14 -3.97116e-14 0 0 0 0)
(5.42101e-14 8.07989e-15 0 2.71051e-14 -4.92225e-14 0 0 0 0)
(2.71051e-14 1.71635e-15 0 5.42101e-14 -1.08048e-14 0 0 0 0)
(5.42101e-14 3.02493e-15 0 5.42101e-14 1.33244e-14 0 0 0 0)
(-5.42101e-14 2.1626e-15 0 5.42101e-14 6.64057e-15 0 0 0 0)
(5.42101e-14 -5.55907e-15 0 0 -5.06798e-15 0 0 0 0)
(2.71051e-14 -6.99083e-15 0 2.71051e-14 4.79356e-15 0 0 0 0)
(0 -3.22868e-15 0 2.71051e-14 1.15078e-14 0 0 0 0)
(0 -2.32923e-15 0 0 1.84954e-14 0 0 0 0)
(-2.71051e-14 -1.03322e-14 0 0 1.41907e-14 0 0 0 0)
(0 -5.54029e-15 0 2.71051e-14 4.03996e-15 0 0 0 0)
(0 2.42076e-14 0 0 6.47611e-15 0 0 0 0)
(2.71051e-13 -8.11417e-13 0 5.14996e-13 -6.0524e-12 0 0 0 0)
(-3.79471e-13 1.03516e-12 0 0 1.27132e-12 0 0 0 0)
(1.0842e-13 -2.11019e-13 0 2.71051e-14 -3.02719e-13 0 0 0 0)
(2.71051e-14 5.01614e-14 0 1.0842e-13 4.64896e-14 0 0 0 0)
(0 -3.27883e-14 0 1.0842e-13 -3.20524e-14 0 0 0 0)
(2.71051e-14 -2.71929e-14 0 1.35525e-13 -2.25469e-14 0 0 0 0)
(8.13152e-14 -2.45435e-14 0 8.13152e-14 -3.33805e-14 0 0 0 0)
(2.71051e-14 -2.45114e-14 0 8.13152e-14 9.61934e-16 0 0 0 0)
(0 -1.6954e-14 0 1.0842e-13 1.78151e-14 0 0 0 0)
(0 2.46576e-14 0 0 -2.34093e-15 0 0 0 0)
(0 4.84351e-14 0 0 -9.47159e-16 0 0 0 0)
(-2.71051e-14 2.23973e-14 0 -2.71051e-14 4.07537e-15 0 0 0 0)
(-2.71051e-14 -1.02654e-14 0 -2.71051e-14 -1.83475e-15 0 0 0 0)
(-2.71051e-14 -1.23026e-14 0 0 4.46911e-17 0 0 0 0)
(-2.71051e-14 3.53445e-15 0 0 1.13184e-14 0 0 0 0)
(-2.71051e-14 9.1035e-16 0 0 1.53707e-14 0 0 0 0)
(-2.71051e-14 -1.09147e-14 0 2.71051e-14 8.32275e-15 0 0 0 0)
(2.71051e-14 -1.55233e-14 0 0 5.51074e-15 0 0 0 0)
(-2.71051e-14 -3.52726e-16 0 2.71051e-14 1.30671e-14 0 0 0 0)
(-2.71051e-14 1.25258e-14 0 2.71051e-14 1.74132e-14 0 0 0 0)
(-2.1684e-13 -1.59492e-12 0 -1.6263e-13 5.33976e-12 0 0 0 0)
(2.71051e-13 1.9392e-12 0 5.42101e-14 -1.0814e-12 0 0 0 0)
(-5.42101e-14 -4.17293e-13 0 5.42101e-14 2.21791e-13 0 0 0 0)
(2.71051e-14 8.52775e-14 0 -2.71051e-14 -7.7358e-14 0 0 0 0)
(2.71051e-14 -1.908e-14 0 -2.71051e-14 -1.95056e-14 0 0 0 0)
(0 -6.11444e-15 0 -5.42101e-14 -9.09515e-15 0 0 0 0)
(0 8.19669e-15 0 -5.42101e-14 1.128e-14 0 0 0 0)
(0 2.28577e-14 0 -1.0842e-13 2.19673e-14 0 0 0 0)
(-1.0842e-13 -7.86163e-15 0 -8.13152e-14 3.80795e-14 0 0 0 0)
(-2.71051e-14 -1.06823e-14 0 -5.42101e-14 4.29562e-14 0 0 0 0)
(0 8.13265e-15 0 -5.42101e-14 1.87145e-14 0 0 0 0)
(0 2.13735e-15 0 -5.42101e-14 -1.03776e-14 0 0 0 0)
(2.71051e-14 -1.86808e-15 0 -2.71051e-14 -3.0096e-14 0 0 0 0)
(5.42101e-14 7.59411e-15 0 -2.71051e-14 -8.48559e-15 0 0 0 0)
(0 8.33517e-15 0 -2.71051e-14 6.05018e-15 0 0 0 0)
(2.71051e-14 -6.22436e-15 0 -2.71051e-14 9.86296e-16 0 0 0 0)
(2.71051e-14 -1.21892e-14 0 0 -4.63571e-15 0 0 0 0)
(-2.71051e-14 -5.58791e-15 0 0 4.27116e-15 0 0 0 0)
(2.71051e-14 6.36219e-15 0 -2.71051e-14 1.30375e-14 0 0 0 0)
(-5.42101e-14 -6.27267e-15 0 0 1.06556e-14 0 0 0 0)
(2.43945e-13 3.44694e-12 0 -2.98156e-13 4.40146e-13 0 0 0 0)
(-2.43945e-13 -4.0828e-12 0 -5.42101e-14 -1.34391e-13 0 0 0 0)
(5.42101e-14 7.93018e-13 0 -1.35525e-13 2.33497e-14 0 0 0 0)
(-2.71051e-14 -1.91136e-13 0 -2.71051e-14 1.85453e-15 0 0 0 0)
(-2.71051e-14 3.54745e-14 0 -1.0842e-13 6.43883e-15 0 0 0 0)
(0 3.59275e-15 0 -8.13152e-14 3.98593e-16 0 0 0 0)
(-5.42101e-14 6.51895e-15 0 -8.13152e-14 7.39951e-15 0 0 0 0)
(5.42101e-14 2.28813e-15 0 -8.13152e-14 -1.47724e-14 0 0 0 0)
(5.42101e-14 4.03488e-15 0 -8.13152e-14 -2.37537e-14 0 0 0 0)
(2.71051e-14 5.29253e-15 0 0 4.18075e-16 0 0 0 0)
(-2.71051e-14 -4.89876e-15 0 -5.42101e-14 3.66451e-16 0 0 0 0)
(0 -2.64131e-14 0 0 -3.73082e-15 0 0 0 0)
(0 -8.37334e-15 0 0 -1.23411e-15 0 0 0 0)
(0 2.38435e-14 0 -8.13152e-14 -1.52447e-15 0 0 0 0)
(-2.71051e-14 1.30063e-14 0 -2.71051e-14 -9.21649e-15 0 0 0 0)
(-2.71051e-14 -9.77554e-15 0 5.42101e-14 -1.01866e-14 0 0 0 0)
(0 -7.62984e-15 0 0 -3.07155e-15 0 0 0 0)
(0 2.14986e-15 0 2.71051e-14 7.42368e-15 0 0 0 0)
(0 6.03168e-15 0 0 1.12709e-14 0 0 0 0)
(0 -1.11672e-14 0 -2.71051e-14 3.88147e-15 0 0 0 0)
(-6.23416e-13 -1.28917e-12 0 7.58942e-13 -7.28864e-12 0 0 0 0)
(4.87891e-13 1.52241e-12 0 -5.42101e-14 1.43632e-12 0 0 0 0)
(-5.42101e-14 -2.81048e-13 0 1.6263e-13 -3.46297e-13 0 0 0 0)
(1.0842e-13 6.83666e-14 0 0 5.0925e-14 0 0 0 0)
(0 -2.05359e-14 0 8.13152e-14 -4.23897e-15 0 0 0 0)
(0 -5.15376e-15 0 5.42101e-14 9.83285e-15 0 0 0 0)
(0 -6.97426e-15 0 5.42101e-14 4.75817e-15 0 0 0 0)
(0 -8.29557e-15 0 2.71051e-14 1.14561e-14 0 0 0 0)
(0 7.3288e-15 0 5.42101e-14 1.16995e-14 0 0 0 0)
(0 1.34379e-14 0 0 2.60009e-15 0 0 0 0)
(0 3.98375e-15 0 0 -2.3526e-14 0 0 0 0)
(2.71051e-14 5.36784e-16 0 0 -1.74379e-14 0 0 0 0)
(-2.71051e-14 3.38269e-16 0 0 7.71721e-15 0 0 0 0)
(2.71051e-14 -3.88276e-16 0 5.42101e-14 -9.63145e-15 0 0 0 0)
(5.42101e-14 -3.27001e-16 0 2.71051e-14 -2.91652e-14 0 0 0 0)
(5.42101e-14 -7.94212e-17 0 0 -1.31532e-14 0 0 0 0)
(0 5.42115e-15 0 0 1.19039e-14 0 0 0 0)
(-2.71051e-14 8.75457e-15 0 0 1.78616e-14 0 0 0 0)
(0 2.81997e-15 0 -2.71051e-14 1.637e-14 0 0 0 0)
(-2.71051e-14 -2.14251e-14 0 2.71051e-14 2.23254e-15 0 0 0 0)
(9.75782e-13 -2.40537e-12 0 1.0842e-13 5.42192e-12 0 0 0 0)
(-8.67362e-13 2.85954e-12 0 5.42101e-14 -9.94431e-13 0 0 0 0)
(1.0842e-13 -5.92382e-13 0 1.0842e-13 2.66235e-13 0 0 0 0)
(-1.6263e-13 1.50922e-13 0 0 -2.23483e-14 0 0 0 0)
(2.71051e-14 -5.61756e-15 0 0 1.85923e-14 0 0 0 0)
(-2.71051e-14 1.25899e-14 0 0 9.65329e-15 0 0 0 0)
(0 8.1422e-15 0 0 3.35362e-15 0 0 0 0)
(0 9.22948e-15 0 5.42101e-14 2.94432e-15 0 0 0 0)
(0 -4.82113e-15 0 0 4.80378e-15 0 0 0 0)
(0 -2.9933e-14 0 0 -1.00883e-15 0 0 0 0)
(2.71051e-14 -2.49368e-14 0 1.0842e-13 -8.71648e-15 0 0 0 0)
(-2.71051e-14 4.83008e-15 0 2.71051e-14 -1.40831e-14 0 0 0 0)
(0 -5.66899e-16 0 2.71051e-14 -9.75019e-15 0 0 0 0)
(2.71051e-14 -1.30389e-14 0 5.42101e-14 1.17945e-15 0 0 0 0)
(0 9.48454e-15 0 0 6.73175e-15 0 0 0 0)
(-2.71051e-14 3.12936e-14 0 -5.42101e-14 9.22494e-15 0 0 0 0)
(-5.42101e-14 2.3385e-14 0 -5.42101e-14 1.03388e-14 0 0 0 0)
(0 6.61598e-15 0 -2.71051e-14 8.9312e-16 0 0 0 0)
(0 -9.59736e-15 0 0 7.80799e-15 0 0 0 0)
(0 -2.97698e-14 0 -2.71051e-14 -4.85011e-16 0 0 0 0)
(-4.33681e-13 3.13832e-12 0 -1.54499e-12 1.20294e-12 0 0 0 0)
(4.60786e-13 -3.63328e-12 0 1.0842e-13 -2.28431e-13 0 0 0 0)
(-1.0842e-13 6.91035e-13 0 -2.1684e-13 7.86409e-14 0 0 0 0)
(0 -1.79276e-13 0 0 5.71989e-15 0 0 0 0)
(0 1.14657e-14 0 0 -1.34736e-14 0 0 0 0)
(0 -2.03924e-14 0 5.42101e-14 -1.91853e-14 0 0 0 0)
(0 -1.36832e-14 0 2.71051e-14 -2.32083e-14 0 0 0 0)
(2.71051e-14 -6.84541e-15 0 5.42101e-14 -2.37343e-14 0 0 0 0)
(0 3.37564e-15 0 5.42101e-14 -1.02048e-14 0 0 0 0)
(5.42101e-14 -8.24022e-17 0 2.71051e-14 -3.1681e-15 0 0 0 0)
(0 -9.09048e-15 0 -2.71051e-14 1.39327e-14 0 0 0 0)
(0 -4.96924e-16 0 -2.71051e-14 6.61824e-15 0 0 0 0)
(0 1.56008e-14 0 -8.13152e-14 1.04936e-15 0 0 0 0)
(0 1.60937e-14 0 -5.42101e-14 2.04272e-14 0 0 0 0)
(-8.13152e-14 7.7185e-15 0 -1.0842e-13 2.26514e-14 0 0 0 0)
(2.71051e-14 3.52765e-15 0 -8.13152e-14 1.77317e-15 0 0 0 0)
(0 -2.91067e-15 0 0 -1.47931e-14 0 0 0 0)
(5.42101e-14 6.22374e-15 0 0 -2.24078e-14 0 0 0 0)
(2.71051e-14 1.44184e-15 0 0 -1.44053e-14 0 0 0 0)
(-2.71051e-14 -2.87481e-14 0 2.71051e-14 1.34399e-15 0 0 0 0)
(-4.33681e-13 -1.43086e-12 0 1.57209e-12 -2.58698e-12 0 0 0 0)
(3.79471e-13 1.73524e-12 0 -1.6263e-13 4.37179e-13 0 0 0 0)
(0 -3.58232e-13 0 1.35525e-13 -1.66477e-13 0 0 0 0)
(1.0842e-13 5.88078e-14 0 5.42101e-14 -2.43102e-14 0 0 0 0)
(5.42101e-14 -3.05227e-14 0 8.13152e-14 -3.29937e-14 0 0 0 0)
(5.42101e-14 2.85513e-15 0 0 -1.87086e-14 0 0 0 0)
(0 3.59323e-15 0 5.42101e-14 -3.23871e-16 0 0 0 0)
(0 2.2233e-14 0 0 1.2273e-14 0 0 0 0)
(-5.42101e-14 1.5745e-14 0 0 2.3565e-14 0 0 0 0)
(-5.42101e-14 -5.79543e-15 0 2.71051e-14 2.4366e-14 0 0 0 0)
(-2.71051e-14 -1.51504e-14 0 2.71051e-14 2.44487e-14 0 0 0 0)
(-8.13152e-14 -8.05329e-15 0 5.42101e-14 3.42335e-14 0 0 0 0)
(-2.71051e-14 1.32421e-14 0 5.42101e-14 2.71416e-14 0 0 0 0)
(0 8.56315e-15 0 2.71051e-14 9.5342e-15 0 0 0 0)
(0 -9.16951e-15 0 8.13152e-14 -9.98838e-15 0 0 0 0)
(2.71051e-14 -6.15095e-15 0 8.13152e-14 -1.2294e-14 0 0 0 0)
(5.42101e-14 -7.96014e-16 0 0 -1.25779e-14 0 0 0 0)
(-5.42101e-14 7.00382e-15 0 -5.42101e-14 -5.93822e-16 0 0 0 0)
(0 1.41545e-14 0 0 -1.62071e-14 0 0 0 0)
(5.42101e-14 -1.67085e-14 0 -2.71051e-14 -6.42372e-15 0 0 0 0)
(9.21572e-13 9.88519e-13 0 -1.11131e-12 1.09489e-12 0 0 0 0)
(-8.67362e-13 -1.21277e-12 0 2.43945e-13 -2.88279e-13 0 0 0 0)
(1.35525e-13 2.29546e-13 0 -5.42101e-14 5.75026e-14 0 0 0 0)
(-1.35525e-13 -4.57924e-14 0 0 -2.79985e-15 0 0 0 0)
(-5.42101e-14 1.70672e-14 0 -8.13152e-14 2.5319e-14 0 0 0 0)
(0 1.22774e-14 0 -1.0842e-13 1.4682e-14 0 0 0 0)
(0 1.72984e-14 0 -1.35525e-13 2.22485e-14 0 0 0 0)
(-5.42101e-14 1.70435e-14 0 -1.35525e-13 2.17915e-15 0 0 0 0)
(5.42101e-14 1.54686e-14 0 -1.35525e-13 -3.04898e-14 0 0 0 0)
(5.42101e-14 8.01311e-16 0 -5.42101e-14 -2.32068e-14 0 0 0 0)
(2.71051e-14 7.77039e-16 0 -5.42101e-14 -1.34439e-14 0 0 0 0)
(0 2.19592e-15 0 -5.42101e-14 7.87653e-15 0 0 0 0)
(0 -9.09849e-15 0 0 1.35795e-14 0 0 0 0)
(0 -2.10363e-14 0 0 1.99825e-16 0 0 0 0)
(-2.71051e-14 -1.41097e-14 0 5.42101e-14 6.50841e-15 0 0 0 0)
(-2.71051e-14 9.38114e-16 0 0 1.28564e-14 0 0 0 0)
(0 8.78951e-15 0 2.71051e-14 8.20978e-15 0 0 0 0)
(-2.71051e-14 2.59456e-15 0 0 7.48163e-15 0 0 0 0)
(0 -4.38806e-15 0 0 -7.65807e-15 0 0 0 0)
(0 -6.11724e-15 0 0 -1.57537e-14 0 0 0 0)
(-1.32815e-12 -6.2425e-13 0 2.98156e-13 -2.81691e-12 0 0 0 0)
(1.49078e-12 6.97855e-13 0 -5.42101e-14 5.925e-13 0 0 0 0)
(-2.43945e-13 -7.27522e-14 0 0 -1.03198e-13 0 0 0 0)
(8.13152e-14 2.66242e-14 0 -5.42101e-14 5.40066e-14 0 0 0 0)
(-5.42101e-14 -1.30409e-14 0 0 6.73463e-15 0 0 0 0)
(-2.71051e-14 -2.15407e-16 0 5.42101e-14 9.31561e-15 0 0 0 0)
(0 -8.90964e-15 0 8.13152e-14 -2.8982e-15 0 0 0 0)
(0 -3.05053e-14 0 1.0842e-13 -9.84489e-15 0 0 0 0)
(0 -9.64095e-15 0 8.13152e-14 -2.48133e-14 0 0 0 0)
(2.71051e-14 1.12505e-14 0 2.71051e-14 -2.38784e-14 0 0 0 0)
(-2.71051e-14 1.59329e-14 0 0 -9.41095e-15 0 0 0 0)
(0 1.89701e-14 0 0 -1.44186e-14 0 0 0 0)
(2.71051e-14 5.56537e-15 0 0 -1.56077e-14 0 0 0 0)
(5.42101e-14 1.4921e-15 0 0 -1.4803e-14 0 0 0 0)
(-5.42101e-14 3.48712e-15 0 -2.71051e-14 9.63744e-15 0 0 0 0)
(5.42101e-14 -4.44958e-15 0 2.71051e-14 7.44058e-15 0 0 0 0)
(-5.42101e-14 -6.17083e-15 0 0 7.89944e-15 0 0 0 0)
(0 -8.86403e-15 0 5.42101e-14 -5.82831e-15 0 0 0 0)
(5.42101e-14 -9.0809e-15 0 0 -5.7597e-15 0 0 0 0)
(0 6.70327e-15 0 2.71051e-14 -4.13748e-15 0 0 0 0)
(1.16552e-12 -1.23589e-12 0 7.04731e-13 4.9348e-12 0 0 0 0)
(-1.16552e-12 1.50094e-12 0 -1.89735e-13 -9.18237e-13 0 0 0 0)
(1.0842e-13 -3.08948e-13 0 0 2.16239e-13 0 0 0 0)
(-1.0842e-13 6.41402e-14 0 -5.42101e-14 -6.24818e-14 0 0 0 0)
(5.42101e-14 -2.76237e-14 0 0 -1.46109e-14 0 0 0 0)
(0 2.64455e-15 0 0 -1.88832e-14 0 0 0 0)
(8.13152e-14 -1.86209e-15 0 0 -2.6612e-14 0 0 0 0)
(0 -4.87168e-15 0 0 -7.1738e-15 0 0 0 0)
(-5.42101e-14 1.43505e-15 0 2.71051e-14 1.37037e-14 0 0 0 0)
(0 1.62037e-14 0 0 1.45201e-14 0 0 0 0)
(0 1.02369e-14 0 0 2.81397e-14 0 0 0 0)
(-2.71051e-14 -4.00086e-15 0 0 1.44043e-14 0 0 0 0)
(2.71051e-14 -9.48291e-15 0 5.42101e-14 -3.90145e-15 0 0 0 0)
(-2.71051e-14 4.20889e-15 0 2.71051e-14 -1.30815e-15 0 0 0 0)
(0 8.13385e-15 0 0 9.48317e-16 0 0 0 0)
(0 -7.99888e-16 0 2.71051e-14 2.62189e-15 0 0 0 0)
(0 -4.47939e-15 0 -2.71051e-14 6.70607e-15 0 0 0 0)
(0 -1.10646e-14 0 5.42101e-14 2.68508e-15 0 0 0 0)
(-2.71051e-14 -2.69722e-15 0 0 1.20639e-14 0 0 0 0)
(-2.71051e-14 3.77993e-15 0 0 1.48264e-14 0 0 0 0)
(-7.86047e-13 3.39232e-12 0 -1.6263e-12 -3.20922e-12 0 0 0 0)
(7.86047e-13 -4.02071e-12 0 2.1684e-13 6.02943e-13 0 0 0 0)
(-1.89735e-13 7.83003e-13 0 -2.71051e-13 -1.56939e-13 0 0 0 0)
(1.35525e-13 -2.04226e-13 0 5.42101e-14 7.62794e-15 0 0 0 0)
(-2.71051e-14 3.05578e-14 0 -8.13152e-14 -3.63094e-15 0 0 0 0)
(0 -1.22165e-14 0 -8.13152e-14 1.14875e-16 0 0 0 0)
(0 2.79971e-15 0 -1.0842e-13 -5.54858e-15 0 0 0 0)
(0 9.81044e-15 0 -1.0842e-13 6.71956e-16 0 0 0 0)
(2.71051e-14 1.20529e-14 0 -1.6263e-13 -5.87444e-16 0 0 0 0)
(0 2.56864e-14 0 -1.0842e-13 -8.7277e-15 0 0 0 0)
(-2.71051e-14 1.58172e-14 0 -8.13152e-14 -1.58141e-14 0 0 0 0)
(2.71051e-14 -1.30711e-14 0 -8.13152e-14 -1.51833e-14 0 0 0 0)
(5.42101e-14 -1.01471e-14 0 -5.42101e-14 -1.61615e-14 0 0 0 0)
(0 6.34186e-15 0 -5.42101e-14 -5.73191e-15 0 0 0 0)
(0 7.41715e-15 0 -8.13152e-14 -1.37993e-14 0 0 0 0)
(0 1.30817e-15 0 -5.42101e-14 -7.60433e-15 0 0 0 0)
(0 -6.10764e-15 0 -5.42101e-14 -3.31434e-15 0 0 0 0)
(0 -3.5062e-15 0 -5.42101e-14 2.33762e-15 0 0 0 0)
(2.71051e-14 3.0604e-15 0 -5.42101e-14 9.34431e-16 0 0 0 0)
(-2.71051e-14 -2.0187e-14 0 -2.71051e-14 1.7214e-15 0 0 0 0)
(-2.71051e-13 -3.84217e-12 0 9.21572e-13 -2.64874e-12 0 0 0 0)
(1.89735e-13 4.55322e-12 0 2.71051e-14 4.61322e-13 0 0 0 0)
(0 -9.04263e-13 0 2.71051e-13 -1.23802e-13 0 0 0 0)
(2.71051e-14 2.17448e-13 0 5.42101e-14 2.48909e-14 0 0 0 0)
(-2.71051e-14 -3.51368e-14 0 8.13152e-14 2.08458e-14 0 0 0 0)
(-5.42101e-14 7.26918e-16 0 8.13152e-14 2.21531e-14 0 0 0 0)
(0 -1.30501e-15 0 2.71051e-14 7.81989e-15 0 0 0 0)
(-5.42101e-14 8.9455e-17 0 8.13152e-14 5.54694e-15 0 0 0 0)
(0 -7.9646e-15 0 8.13152e-14 2.77013e-15 0 0 0 0)
(5.42101e-14 9.77075e-16 0 8.13152e-14 -1.23003e-14 0 0 0 0)
(5.42101e-14 3.78128e-15 0 8.13152e-14 -4.12289e-14 0 0 0 0)
(2.71051e-14 -4.34832e-15 0 1.0842e-13 -3.22979e-14 0 0 0 0)
(0 -3.15024e-17 0 5.42101e-14 -1.39389e-14 0 0 0 0)
(0 6.57116e-15 0 2.71051e-14 -2.97653e-16 0 0 0 0)
(-2.71051e-14 6.26143e-15 0 5.42101e-14 -7.69774e-15 0 0 0 0)
(2.71051e-14 9.68504e-15 0 2.71051e-14 -7.33628e-15 0 0 0 0)
(5.42101e-14 5.46256e-15 0 5.42101e-14 -1.80267e-15 0 0 0 0)
(-5.42101e-14 -6.81581e-15 0 0 1.83976e-15 0 0 0 0)
(0 -3.31344e-15 0 5.42101e-14 -1.86592e-14 0 0 0 0)
(5.42101e-14 1.1241e-15 0 2.71051e-14 -1.96771e-14 0 0 0 0)
(1.89735e-13 1.2049e-12 0 3.52366e-13 8.41087e-12 0 0 0 0)
(8.13152e-14 -1.49578e-12 0 -1.35525e-13 -1.67139e-12 0 0 0 0)
(-1.0842e-13 3.46572e-13 0 5.42101e-14 3.97061e-13 0 0 0 0)
(-1.0842e-13 -5.95781e-14 0 -5.42101e-14 -6.67108e-14 0 0 0 0)
(2.71051e-14 2.782e-14 0 0 1.56501e-14 0 0 0 0)
(0 -2.52424e-14 0 5.42101e-14 -1.36214e-15 0 0 0 0)
(0 -1.38064e-14 0 1.0842e-13 3.06004e-15 0 0 0 0)
(5.42101e-14 4.76068e-15 0 2.71051e-14 -3.71755e-15 0 0 0 0)
(-2.71051e-14 -5.7943e-15 0 1.0842e-13 8.4208e-15 0 0 0 0)
(-2.71051e-14 -1.83126e-14 0 2.71051e-14 7.04776e-15 0 0 0 0)
(0 -4.18041e-15 0 0 -6.23963e-15 0 0 0 0)
(0 1.4219e-14 0 -2.71051e-14 -7.29537e-15 0 0 0 0)
(0 2.18531e-14 0 -2.71051e-14 8.56055e-15 0 0 0 0)
(0 1.2583e-14 0 -2.71051e-14 1.72802e-14 0 0 0 0)
(0 3.7852e-16 0 0 1.82437e-14 0 0 0 0)
(-2.71051e-14 7.20324e-15 0 0 1.47722e-14 0 0 0 0)
(-5.42101e-14 3.06841e-15 0 0 3.62923e-15 0 0 0 0)
(2.71051e-14 -2.03627e-14 0 2.71051e-14 -3.46226e-15 0 0 0 0)
(2.71051e-14 -1.84564e-14 0 2.71051e-14 3.14206e-16 0 0 0 0)
(-5.42101e-14 1.81493e-14 0 2.71051e-14 -7.70714e-16 0 0 0 0)
(-8.13152e-14 2.89731e-12 0 5.69206e-13 -5.33575e-12 0 0 0 0)
(-1.0842e-13 -3.46058e-12 0 -3.25261e-13 1.1349e-12 0 0 0 0)
(1.0842e-13 7.00418e-13 0 -1.89735e-13 -2.54325e-13 0 0 0 0)
(2.71051e-14 -1.63963e-13 0 -8.13152e-14 5.54068e-14 0 0 0 0)
(0 3.02119e-14 0 -8.13152e-14 -3.50391e-14 0 0 0 0)
(8.13152e-14 -1.18632e-14 0 -1.0842e-13 -2.1366e-14 0 0 0 0)
(-2.71051e-14 -3.66042e-15 0 -1.0842e-13 1.17375e-14 0 0 0 0)
(-5.42101e-14 5.45021e-15 0 -1.0842e-13 1.26413e-14 0 0 0 0)
(0 2.80072e-15 0 -1.0842e-13 3.41227e-16 0 0 0 0)
(0 -1.36833e-14 0 -1.0842e-13 5.49052e-15 0 0 0 0)
(-2.71051e-14 -1.05619e-14 0 -8.13152e-14 1.84375e-14 0 0 0 0)
(0 1.04519e-14 0 -8.13152e-14 4.08028e-15 0 0 0 0)
(-5.42101e-14 2.4544e-14 0 -1.0842e-13 1.49277e-15 0 0 0 0)
(5.42101e-14 1.62543e-14 0 -8.13152e-14 -1.70014e-14 0 0 0 0)
(0 3.75348e-15 0 -5.42101e-14 -1.03805e-14 0 0 0 0)
(2.71051e-14 -4.92939e-15 0 -8.13152e-14 -1.81118e-14 0 0 0 0)
(5.42101e-14 -1.27719e-14 0 0 -2.40527e-14 0 0 0 0)
(5.42101e-14 -1.01308e-14 0 0 -1.50195e-14 0 0 0 0)
(-2.71051e-14 -6.21898e-16 0 -2.71051e-14 1.02652e-14 0 0 0 0)
(-2.71051e-14 1.58061e-15 0 -5.42101e-14 1.19738e-14 0 0 0 0)
(4.33681e-13 -2.99595e-12 0 2.71051e-14 -4.90974e-12 0 0 0 0)
(-6.50521e-13 3.58565e-12 0 1.35525e-13 9.43385e-13 0 0 0 0)
(8.13152e-14 -7.32924e-13 0 1.89735e-13 -2.14353e-13 0 0 0 0)
(5.42101e-14 1.59708e-13 0 1.0842e-13 4.09833e-14 0 0 0 0)
(0 -4.89528e-14 0 1.35525e-13 -1.39535e-14 0 0 0 0)
(0 2.15341e-14 0 5.42101e-14 -6.54914e-15 0 0 0 0)
(0 2.02009e-14 0 8.13152e-14 4.60663e-15 0 0 0 0)
(0 -6.63557e-15 0 1.0842e-13 1.0162e-14 0 0 0 0)
(0 -1.29451e-14 0 8.13152e-14 -6.51509e-15 0 0 0 0)
(0 -2.16347e-16 0 8.13152e-14 -3.02837e-15 0 0 0 0)
(0 -5.59065e-15 0 8.13152e-14 1.0245e-14 0 0 0 0)
(0 -2.72572e-15 0 8.13152e-14 8.10371e-15 0 0 0 0)
(0 7.71452e-16 0 8.13152e-14 -1.27398e-15 0 0 0 0)
(2.71051e-14 7.0971e-16 0 1.0842e-13 -1.61395e-14 0 0 0 0)
(0 -7.31908e-16 0 1.0842e-13 -1.76326e-14 0 0 0 0)
(5.42101e-14 -6.46899e-15 0 5.42101e-14 -2.32424e-14 0 0 0 0)
(0 6.1607e-15 0 2.71051e-14 -1.44128e-14 0 0 0 0)
(0 1.39552e-14 0 -2.71051e-14 -1.75422e-15 0 0 0 0)
(0 8.53688e-15 0 0 2.06823e-15 0 0 0 0)
(0 -4.08965e-15 0 0 -1.12927e-15 0 0 0 0)
(1.0842e-13 -1.06905e-12 0 -6.77626e-13 5.04282e-12 0 0 0 0)
(5.42101e-14 1.2348e-12 0 1.35525e-13 -9.77828e-13 0 0 0 0)
(2.71051e-14 -2.01984e-13 0 -5.42101e-14 2.22371e-13 0 0 0 0)
(-2.71051e-14 3.64362e-14 0 -2.71051e-14 -4.29208e-14 0 0 0 0)
(-2.71051e-14 -1.73205e-14 0 -5.42101e-14 2.62276e-14 0 0 0 0)
(-2.71051e-14 6.69696e-15 0 0 2.33525e-14 0 0 0 0)
(0 1.30507e-14 0 -2.71051e-14 -2.00355e-15 0 0 0 0)
(2.71051e-14 -5.67151e-15 0 -2.71051e-14 -9.89914e-15 0 0 0 0)
(-2.71051e-14 -1.03896e-14 0 -2.71051e-14 1.03035e-14 0 0 0 0)
(-2.71051e-14 3.07672e-15 0 0 1.34356e-14 0 0 0 0)
(0 5.70227e-16 0 0 7.44316e-15 0 0 0 0)
(-2.71051e-14 -1.0671e-15 0 0 1.8456e-14 0 0 0 0)
(2.71051e-14 3.00822e-16 0 0 1.1236e-14 0 0 0 0)
(0 -1.04396e-16 0 -2.71051e-14 1.73837e-14 0 0 0 0)
(-2.71051e-14 -3.34945e-15 0 -5.42101e-14 1.06307e-14 0 0 0 0)
(-2.71051e-14 -1.70958e-15 0 0 2.14651e-14 0 0 0 0)
(-2.71051e-14 8.7163e-15 0 -2.71051e-14 1.88092e-14 0 0 0 0)
(0 6.35024e-15 0 0 6.58809e-15 0 0 0 0)
(0 3.05558e-18 0 0 -1.49616e-15 0 0 0 0)
(0 6.41645e-16 0 0 -1.95184e-15 0 0 0 0)
)
;

boundaryField
{
    movingWall
    {
        type            extrapolatedCalculated;
        value           nonuniform List<tensor> 
20
(
(1.0842e-13 -1.06905e-12 0 -2.22045e-13 5.11461e-12 0 0 0 0)
(5.42101e-14 1.2348e-12 0 -2.22045e-13 -8.38423e-13 0 0 0 0)
(2.71051e-14 -2.01984e-13 0 -3.9968e-13 1.75409e-13 0 0 0 0)
(-2.71051e-14 3.64362e-14 0 -3.10862e-13 -3.04866e-14 0 0 0 0)
(-2.71051e-14 -1.73205e-14 0 -3.10862e-13 2.96646e-14 0 0 0 0)
(-2.71051e-14 6.69696e-15 0 -2.22045e-13 3.87953e-14 0 0 0 0)
(0 1.30507e-14 0 -2.22045e-13 2.87679e-15 0 0 0 0)
(2.71051e-14 -5.67151e-15 0 -2.22045e-13 -1.34074e-14 0 0 0 0)
(-2.71051e-14 -1.03896e-14 0 -2.66454e-13 2.55628e-14 0 0 0 0)
(-2.71051e-14 3.07672e-15 0 -1.77636e-13 2.81511e-14 0 0 0 0)
(0 5.70227e-16 0 -1.77636e-13 1.32559e-14 0 0 0 0)
(-2.71051e-14 -1.0671e-15 0 -1.33227e-13 2.58702e-14 0 0 0 0)
(2.71051e-14 3.00822e-16 0 -1.77636e-13 1.75243e-14 0 0 0 0)
(0 -1.04396e-16 0 -1.77636e-13 2.46669e-14 0 0 0 0)
(-2.71051e-14 -3.34945e-15 0 -1.33227e-13 1.79419e-14 0 0 0 0)
(-2.71051e-14 -1.70958e-15 0 -8.88178e-14 3.80647e-14 0 0 0 0)
(-2.71051e-14 8.7163e-15 0 -4.44089e-14 2.47802e-14 0 0 0 0)
(0 6.35024e-15 0 0 3.19952e-15 0 0 0 0)
(0 3.05558e-18 0 0 -6.20711e-16 0 0 0 0)
(0 6.41645e-16 0 0 3.18729e-15 0 0 0 0)
)
;
    }
    fixedWalls
    {
        type            extrapolatedCalculated;
        value           nonuniform List<tensor> 
60
(
(6.66134e-13 3.15414e-11 0 4.33681e-13 8.38236e-12 0 0 0 0)
(1.15463e-12 1.98803e-12 0 0 -1.36996e-11 0 0 0 0)
(6.21725e-13 -2.3257e-11 0 -1.11131e-12 3.52666e-12 0 0 0 0)
(-3.19744e-12 1.60947e-11 0 2.71051e-13 4.75082e-12 0 0 0 0)
(1.59872e-12 -4.25373e-12 0 5.14996e-13 -6.0524e-12 0 0 0 0)
(-1.15463e-12 -8.11493e-12 0 -1.6263e-13 5.33976e-12 0 0 0 0)
(1.02141e-12 1.71053e-11 0 -2.98156e-13 4.40146e-13 0 0 0 0)
(-2.4869e-12 -6.35435e-12 0 7.58942e-13 -7.28864e-12 0 0 0 0)
(4.13003e-12 -1.20493e-11 0 1.0842e-13 5.42192e-12 0 0 0 0)
(-2.13163e-12 1.53333e-11 0 -1.54499e-12 1.20294e-12 0 0 0 0)
(-1.86517e-12 -7.23751e-12 0 1.57209e-12 -2.58698e-12 0 0 0 0)
(4.08562e-12 4.9854e-12 0 -1.11131e-12 1.09489e-12 0 0 0 0)
(-6.39488e-12 -2.85794e-12 0 2.98156e-13 -2.81691e-12 0 0 0 0)
(5.32907e-12 -6.28225e-12 0 7.04731e-13 4.9348e-12 0 0 0 0)
(-3.55271e-12 1.68813e-11 0 -1.6263e-12 -3.20922e-12 0 0 0 0)
(-1.24345e-12 -1.91191e-11 0 9.21572e-13 -2.64874e-12 0 0 0 0)
(1.77636e-13 6.28633e-12 0 3.52366e-13 8.41087e-12 0 0 0 0)
(1.33227e-13 1.45243e-11 0 5.69206e-13 -5.33575e-12 0 0 0 0)
(2.44249e-12 -1.50567e-11 0 2.71051e-14 -4.90974e-12 0 0 0 0)
(2.22045e-13 -5.11461e-12 0 -6.77626e-13 5.04282e-12 0 0 0 0)
(0 -2.70038e-14 0 0 1.05155e-14 0 0 0 0)
(8.88178e-14 -1.50583e-14 0 0 -1.60798e-14 0 0 0 0)
(0 3.73155e-14 0 0 -1.46313e-14 0 0 0 0)
(0 4.34669e-14 0 0 6.47611e-15 0 0 0 0)
(0 1.14111e-14 0 2.71051e-14 1.74132e-14 0 0 0 0)
(-8.88178e-14 -2.6186e-14 0 0 1.06556e-14 0 0 0 0)
(0 -3.12112e-14 0 -2.71051e-14 3.88147e-15 0 0 0 0)
(-4.44089e-14 -4.17119e-14 0 2.71051e-14 2.23254e-15 0 0 0 0)
(0 -4.01413e-14 0 -2.71051e-14 -4.85011e-16 0 0 0 0)
(-4.44089e-14 -3.97718e-14 0 2.71051e-14 1.34399e-15 0 0 0 0)
(0 -4.55173e-14 0 -2.71051e-14 -6.42372e-15 0 0 0 0)
(0 -1.40769e-14 0 0 -1.57537e-14 0 0 0 0)
(0 1.74976e-14 0 2.71051e-14 -4.13748e-15 0 0 0 0)
(-4.44089e-14 2.47296e-15 0 0 1.48264e-14 0 0 0 0)
(-4.44089e-14 -4.18079e-14 0 -2.71051e-14 1.7214e-15 0 0 0 0)
(8.88178e-14 -4.41264e-15 0 2.71051e-14 -1.96771e-14 0 0 0 0)
(-1.33227e-13 3.69004e-14 0 2.71051e-14 -7.70714e-16 0 0 0 0)
(-4.44089e-14 -1.32978e-15 0 -5.42101e-14 1.19738e-14 0 0 0 0)
(0 -1.09947e-14 0 0 -1.12927e-15 0 0 0 0)
(0 3.18729e-15 0 0 -1.95184e-15 0 0 0 0)
(2.43945e-13 6.26639e-12 0 6.66134e-13 3.15414e-11 0 0 0 0)
(0 -7.51443e-12 0 2.66454e-13 -6.47583e-12 0 0 0 0)
(0 1.54318e-12 0 7.54952e-13 1.48367e-12 0 0 0 0)
(-1.0842e-13 -3.56072e-13 0 2.66454e-13 -3.03104e-13 0 0 0 0)
(2.71051e-14 7.78094e-14 0 3.10862e-13 5.93842e-14 0 0 0 0)
(-2.71051e-14 -7.96217e-15 0 3.10862e-13 8.13302e-15 0 0 0 0)
(2.71051e-14 1.07751e-14 0 2.66454e-13 2.75355e-14 0 0 0 0)
(-2.71051e-14 3.63602e-15 0 3.10862e-13 5.12334e-14 0 0 0 0)
(-8.13152e-14 -2.4174e-15 0 1.77636e-13 4.20796e-14 0 0 0 0)
(0 -3.0833e-15 0 8.88178e-14 4.15638e-14 0 0 0 0)
(0 3.41131e-16 0 8.88178e-14 2.97464e-14 0 0 0 0)
(0 1.05972e-14 0 8.88178e-14 4.29284e-14 0 0 0 0)
(-2.71051e-14 5.91882e-15 0 4.44089e-14 7.21352e-14 0 0 0 0)
(-2.71051e-14 -1.23571e-14 0 4.44089e-14 6.66037e-14 0 0 0 0)
(0 -2.10552e-14 0 0 2.27069e-14 0 0 0 0)
(0 -7.86357e-15 0 0 -1.7617e-14 0 0 0 0)
(0 5.30925e-15 0 0 -8.74739e-15 0 0 0 0)
(2.71051e-14 5.25366e-15 0 0 3.62002e-15 0 0 0 0)
(0 5.84594e-15 0 8.88178e-14 1.22672e-14 0 0 0 0)
(-2.71051e-14 -9.81776e-15 0 0 2.70038e-14 0 0 0 0)
)
;
    }
    frontAndBack
    {
        type            empty;
    }
}


// ************************************************************************* //
