/*--------------------------------*- C++ -*----------------------------------*\
| =========                 |                                                 |
| \\      /  F ield         | OpenFOAM: The Open Source CFD Toolbox           |
|  \\    /   O peration     | Version:  2506                                  |
|   \\  /    A nd           | Website:  www.openfoam.com                      |
|    \\/     M anipulation  |                                                 |
\*---------------------------------------------------------------------------*/
FoamFile
{
    version     2.0;
    format      ascii;
    arch        "LSB;label=32;scalar=64";
    class       volVectorField;
    location    "8.125";
    object      LambVectorField;
}
// * * * * * * * * * * * * * * * * * * * * * * * * * * * * * * * * * * * * * //

dimensions      [0 1 -2 0 0 0 0];

internalField   nonuniform List<vector> 
400
(
(-4.5993e-25 -5.83271e-12 0)
(-1.199e-25 7.40601e-12 -0)
(-5.42232e-27 -1.46187e-12 0)
(-3.10895e-28 4.10282e-13 -0)
(-3.50356e-30 -2.35992e-14 0)
(7.13006e-31 3.50672e-14 0)
(-4.47351e-30 -6.49852e-14 0)
(-4.65715e-31 -3.63602e-15 0)
(2.54308e-31 2.4174e-15 0)
(-5.31257e-30 -5.11268e-14 0)
(-4.05676e-30 -5.45512e-14 0)
(-6.95518e-30 -6.48073e-14 0)
(-1.08435e-29 -6.01289e-14 0)
(-6.96891e-30 -4.1853e-14 0)
(-1.88211e-30 -3.3155e-14 0)
(2.04121e-30 -4.63465e-14 -0)
(1.16105e-31 -5.30925e-15 -0)
(-5.38149e-31 -5.94638e-14 0)
(-1.79284e-31 -5.84594e-15 0)
(6.62791e-31 9.81776e-15 0)
(-2.29388e-27 -4.61539e-13 0)
(-1.64807e-28 4.6467e-13 -0)
(-5.82559e-29 -1.80154e-13 0)
(2.48749e-31 2.7153e-15 0)
(-2.19996e-30 -8.74238e-14 0)
(-1.38009e-29 -9.03813e-14 0)
(-2.22901e-30 -1.92445e-14 0)
(-3.78823e-30 -5.11293e-14 0)
(4.77203e-31 5.61295e-15 0)
(2.31281e-31 1.28764e-14 0)
(9.44402e-32 -2.15882e-15 -0)
(-6.92252e-31 -1.75033e-14 0)
(-5.00701e-31 -3.8138e-15 0)
(5.63745e-30 7.25655e-14 0)
(-8.55732e-31 1.63723e-14 -0)
(-3.62849e-31 4.21744e-15 -0)
(-1.11758e-31 1.18336e-15 -0)
(5.4734e-31 -5.59258e-15 -0)
(5.21943e-31 -1.35515e-14 -0)
(-3.27509e-33 -8.69978e-17 0)
(-2.00729e-25 3.45236e-12 -0)
(-6.69136e-26 -5.35057e-12 0)
(-3.05747e-27 1.23861e-12 -0)
(-1.96661e-28 -2.97129e-13 0)
(-1.88402e-30 4.79687e-14 -0)
(-7.80352e-30 -4.28336e-14 0)
(5.20487e-30 4.41057e-14 0)
(2.31539e-32 1.90162e-15 0)
(-6.82314e-30 -6.89256e-14 0)
(1.3633e-29 8.55644e-14 0)
(3.86023e-30 6.8322e-14 0)
(1.39071e-30 7.63632e-14 0)
(4.88574e-30 4.60831e-14 0)
(6.43307e-30 6.46657e-14 0)
(1.38131e-31 9.43564e-14 0)
(-2.07243e-30 6.70016e-14 -0)
(-5.14688e-30 4.07027e-14 -0)
(-9.22631e-30 5.5278e-14 -0)
(1.00953e-30 -7.36185e-15 -0)
(2.14955e-30 -2.30419e-14 -0)
(-1.17294e-25 -2.9151e-12 0)
(-3.07782e-26 3.67495e-12 -0)
(-1.89493e-27 -8.88856e-13 0)
(-5.55628e-29 1.85389e-13 -0)
(-1.38872e-29 -4.99565e-14 0)
(6.37369e-30 3.18914e-14 0)
(1.59986e-29 6.95222e-14 0)
(5.12458e-30 1.09653e-13 0)
(-3.12987e-30 5.87689e-14 -0)
(2.1818e-32 1.90252e-14 0)
(1.44576e-30 5.24938e-14 0)
(9.37216e-31 5.11852e-14 0)
(3.00787e-30 5.20475e-14 0)
(2.22009e-31 5.55907e-15 0)
(7.50164e-32 3.40959e-14 0)
(-9.09164e-31 3.03337e-14 -0)
(-7.00785e-32 2.32923e-15 -0)
(-5.5034e-31 1.03322e-14 -0)
(-4.35518e-30 3.26453e-14 -0)
(2.63057e-30 -2.42076e-14 -0)
(-1.41055e-26 1.32641e-12 -0)
(-2.60878e-27 -1.03516e-12 0)
(-6.73164e-29 2.38125e-13 -0)
(2.3884e-29 5.82589e-14 0)
(3.09133e-29 1.41209e-13 0)
(1.3356e-29 1.62718e-13 0)
(-5.61147e-30 1.05859e-13 -0)
(-1.72873e-29 1.05827e-13 -0)
(-3.7377e-29 1.25374e-13 -0)
(8.20838e-30 -2.46576e-14 -0)
(2.4967e-30 -4.84351e-14 -0)
(-7.49742e-30 -4.95024e-14 0)
(-2.9036e-30 -1.68397e-14 0)
(6.00394e-31 1.23026e-14 0)
(-1.746e-31 -3.53445e-15 0)
(-7.66028e-32 -9.1035e-16 0)
(2.22427e-30 3.80198e-14 0)
(-3.88091e-31 1.55233e-14 -0)
(-2.656e-30 2.74578e-14 -0)
(-4.15913e-31 1.45793e-14 -0)
(-2.90574e-26 1.43229e-12 -0)
(-8.17732e-27 -1.88499e-12 0)
(-4.22144e-28 4.71503e-13 -0)
(-1.85641e-29 -1.12383e-13 0)
(3.41379e-31 -8.02505e-15 -0)
(1.23187e-30 -4.80957e-14 -0)
(6.47055e-30 -6.24068e-14 -0)
(-7.39802e-30 -1.31278e-13 0)
(-9.17386e-30 -7.34535e-14 0)
(9.69036e-31 -4.35278e-14 -0)
(-1.12653e-30 -6.23428e-14 0)
(-3.32811e-30 -5.63475e-14 0)
(-9.95433e-31 -2.5237e-14 0)
(-1.40126e-30 -3.46992e-14 0)
(-4.08925e-30 -3.54402e-14 0)
(-2.58367e-30 -2.08807e-14 0)
(6.47743e-31 1.21892e-14 0)
(1.02993e-32 5.58791e-15 0)
(9.16419e-32 -3.34672e-14 -0)
(4.10641e-31 6.27267e-15 0)
(-1.60153e-25 -3.7451e-12 0)
(-3.34123e-26 4.02859e-12 -0)
(-1.79693e-27 -9.28543e-13 0)
(-5.96443e-29 1.64031e-13 -0)
(-3.43378e-30 -1.43895e-13 0)
(7.53224e-31 -8.49079e-14 -0)
(-5.25166e-30 -8.78341e-14 0)
(-4.70841e-30 -8.36033e-14 0)
(-7.05606e-30 -8.535e-14 0)
(-5.11614e-31 -5.29253e-15 0)
(-6.68648e-30 -4.93113e-14 0)
(1.25937e-30 2.64131e-14 0)
(-1.07626e-30 8.37334e-15 -0)
(3.79137e-30 -1.05159e-13 -0)
(-4.4083e-30 -4.01114e-14 0)
(6.01526e-30 6.39856e-14 0)
(9.26719e-32 7.62984e-15 0)
(4.41984e-31 2.49552e-14 0)
(-2.02933e-31 -6.03168e-15 0)
(-1.24359e-30 -1.59378e-14 0)
(-3.2536e-26 2.04811e-12 -0)
(-4.72072e-27 -1.57662e-12 0)
(-2.93634e-28 4.43678e-13 -0)
(-1.25612e-29 -6.83666e-14 0)
(2.22536e-30 1.01851e-13 0)
(-1.28387e-30 5.93639e-14 -0)
(-1.81647e-30 6.11844e-14 -0)
(-3.23455e-30 3.54006e-14 -0)
(-5.2809e-30 4.68813e-14 -0)
(2.4298e-31 -1.34379e-14 -0)
(-8.65848e-32 -3.98375e-15 0)
(-1.16782e-32 -5.36784e-16 0)
(-9.16789e-33 -3.38269e-16 0)
(1.37252e-30 5.45984e-14 0)
(6.36961e-31 2.74321e-14 0)
(1.73682e-33 7.94212e-17 0)
(-1.21571e-31 -5.42115e-15 0)
(-6.66048e-31 -8.75457e-15 0)
(-3.29089e-30 -2.9925e-14 0)
(5.06071e-30 4.85301e-14 0)
(-7.57234e-26 2.51379e-12 -0)
(-1.70268e-26 -2.80533e-12 0)
(-1.07065e-27 7.00802e-13 -0)
(-2.19793e-29 -1.50922e-13 0)
(-1.04074e-31 5.61756e-15 -0)
(-1.12626e-30 -1.25899e-14 0)
(-8.74247e-31 -8.1422e-15 0)
(7.68627e-30 4.49806e-14 0)
(9.62622e-31 4.82113e-15 0)
(3.67182e-30 2.9933e-14 0)
(-1.32907e-29 1.33357e-13 -0)
(-2.82223e-30 2.2275e-14 -0)
(-1.42128e-30 2.7672e-14 -0)
(-8.90165e-30 6.7249e-14 -0)
(1.72382e-30 -9.48454e-15 -0)
(3.20835e-30 -8.55037e-14 -0)
(-1.01793e-29 -7.75951e-14 0)
(-6.62035e-30 -3.3721e-14 0)
(1.89399e-30 9.59736e-15 0)
(2.67419e-31 2.66478e-15 0)
(-1.79527e-25 -4.68331e-12 0)
(-2.60052e-26 3.7417e-12 -0)
(-1.81623e-27 -9.07876e-13 0)
(-7.12635e-30 1.79276e-13 -0)
(-2.38225e-30 -1.14657e-14 0)
(5.58817e-30 7.46025e-14 0)
(1.56946e-31 4.07883e-14 0)
(-3.78095e-30 6.10555e-14 -0)
(-3.28423e-30 5.08345e-14 -0)
(-7.65873e-31 2.71875e-14 -0)
(1.1787e-30 -1.80146e-14 -0)
(3.16836e-30 -2.66081e-14 -0)
(6.82284e-30 -9.69159e-14 -0)
(-2.59652e-30 -7.03038e-14 0)
(-1.05149e-29 -1.16139e-13 0)
(-9.68208e-30 -8.48428e-14 0)
(3.66202e-31 2.91067e-15 0)
(-5.29087e-31 -6.22374e-15 0)
(-2.71139e-31 -1.44184e-15 0)
(5.55345e-30 5.58531e-14 0)
(-5.43348e-26 3.00296e-12 -0)
(-7.18373e-27 -1.89787e-12 0)
(-3.66042e-28 4.93757e-13 -0)
(-9.3255e-31 -4.59765e-15 0)
(-1.71405e-29 1.11838e-13 -0)
(2.92352e-31 -2.85513e-15 -0)
(-6.31249e-30 5.06169e-14 -0)
(1.47768e-30 -2.2233e-14 -0)
(-1.53701e-30 -1.5745e-14 0)
(2.99352e-30 3.29005e-14 0)
(1.67605e-30 4.22555e-14 0)
(-3.76799e-30 6.22634e-14 -0)
(-1.67429e-30 4.0968e-14 -0)
(1.33323e-30 1.85419e-14 0)
(4.0504e-30 9.04847e-14 0)
(-1.73106e-30 8.74661e-14 -0)
(-1.33302e-32 7.96014e-16 -0)
(1.69877e-30 -6.12139e-14 -0)
(-7.54321e-31 -1.41545e-14 0)
(-1.18305e-30 -1.03965e-14 0)
(-2.61712e-26 -2.09983e-12 0)
(-3.75588e-27 1.45672e-12 -0)
(-9.52737e-29 -2.83756e-13 0)
(-1.29525e-29 4.57924e-14 -0)
(1.20189e-29 -9.83824e-14 -0)
(1.35399e-29 -1.20698e-13 -0)
(-9.30847e-32 -1.52824e-13 0)
(-9.27673e-30 -1.52569e-13 0)
(-2.58266e-29 -1.50994e-13 0)
(-1.18544e-29 -5.50114e-14 0)
(-9.84583e-30 -5.49871e-14 0)
(-1.25932e-29 -5.6406e-14 0)
(1.82894e-30 9.09849e-15 0)
(2.78257e-30 2.10363e-14 0)
(-6.38566e-31 6.83198e-14 -0)
(8.27619e-33 -9.38114e-16 -0)
(6.30526e-34 1.83155e-14 0)
(-2.0516e-31 -2.59456e-15 0)
(1.14002e-31 4.38806e-15 0)
(2.1528e-31 6.11724e-15 0)
(-6.59046e-27 9.22406e-13 -0)
(-6.7863e-28 -7.52065e-13 0)
(-1.20997e-29 7.27522e-14 -0)
(-1.41325e-29 -8.08343e-14 0)
(1.30315e-30 1.30409e-14 0)
(2.41784e-30 5.44255e-14 0)
(8.82162e-30 9.02248e-14 0)
(-6.20602e-30 1.38926e-13 -0)
(-1.88533e-29 9.09561e-14 -0)
(-2.23678e-30 1.58546e-14 -0)
(1.51004e-30 -1.59329e-14 -0)
(-3.46173e-31 -1.89701e-14 0)
(-5.28301e-31 -5.56537e-15 0)
(-1.10269e-31 -1.4921e-15 0)
(-3.36047e-30 -3.05922e-14 0)
(3.4323e-30 3.15546e-14 0)
(4.03274e-31 6.17083e-15 0)
(2.96858e-30 6.30741e-14 0)
(-2.11481e-31 9.0809e-15 -0)
(-8.92457e-31 2.04018e-14 -0)
(-3.04787e-26 1.94063e-12 -0)
(-5.65817e-27 -1.69068e-12 0)
(-2.15096e-28 3.08948e-13 -0)
(-3.04412e-29 -1.1835e-13 0)
(-1.51429e-30 2.76237e-14 -0)
(5.03108e-32 -2.64455e-15 -0)
(-5.28329e-32 1.86209e-15 -0)
(-1.83396e-31 4.87168e-15 -0)
(-1.97889e-30 2.567e-14 -0)
(3.77461e-31 -1.62037e-14 -0)
(-8.69598e-31 -1.02369e-14 0)
(3.16365e-31 4.00086e-15 0)
(2.86229e-30 6.3693e-14 0)
(-3.60725e-31 2.28962e-14 -0)
(-7.0787e-31 -8.13385e-15 0)
(1.83011e-30 2.79049e-14 0)
(-1.78808e-30 -2.26257e-14 0)
(1.35705e-30 6.52747e-14 0)
(-8.52779e-32 2.69722e-15 -0)
(2.3369e-32 -3.77993e-15 -0)
(-2.11802e-25 -5.01862e-12 0)
(-3.5087e-26 4.23755e-12 -0)
(-2.10397e-27 -1.05405e-12 0)
(-1.16292e-28 2.58436e-13 -0)
(5.16647e-30 -1.11873e-13 -0)
(9.97832e-30 -6.90987e-14 -0)
(1.87235e-29 -1.1122e-13 -0)
(1.37632e-29 -1.18231e-13 -0)
(1.22701e-29 -1.74683e-13 -0)
(-5.52478e-31 -1.34107e-13 0)
(-1.81271e-29 -9.71324e-14 0)
(-1.10755e-29 -6.82441e-14 0)
(-2.46365e-30 -4.4063e-14 0)
(-3.68281e-30 -6.0552e-14 0)
(-1.05885e-29 -8.87323e-14 0)
(-7.49453e-30 -5.55183e-14 0)
(-6.36936e-30 -4.81025e-14 0)
(-3.74782e-30 -5.07039e-14 0)
(-5.5753e-30 -5.72705e-14 0)
(-7.23072e-31 -6.91805e-15 0)
(-2.27697e-25 4.76374e-12 -0)
(-4.24374e-26 -4.52612e-12 0)
(-2.6628e-27 1.17531e-12 -0)
(-5.44387e-29 -1.63238e-13 0)
(-1.0612e-29 1.16452e-13 -0)
(-1.44056e-30 8.05882e-14 -0)
(-2.38243e-30 2.84101e-14 -0)
(-2.51196e-30 8.12257e-14 -0)
(-7.40702e-30 8.92798e-14 -0)
(-8.88312e-30 8.03381e-14 -0)
(-5.67497e-30 7.75339e-14 -0)
(-8.20491e-30 1.12769e-13 -0)
(-6.32872e-30 5.42416e-14 -0)
(-1.50049e-30 2.05339e-14 -0)
(-2.4437e-30 4.79487e-14 -0)
(-1.82207e-31 1.742e-14 -0)
(2.2368e-30 4.87475e-14 0)
(3.01027e-31 6.81581e-15 0)
(-1.2812e-30 5.75235e-14 -0)
(2.86612e-31 2.5981e-14 0)
(-1.33983e-26 -8.52537e-13 0)
(-4.98777e-27 1.36025e-12 -0)
(-2.21627e-28 -2.92362e-13 0)
(-1.07938e-30 5.36802e-15 -0)
(-4.51454e-30 -2.782e-14 0)
(6.12768e-30 7.94525e-14 0)
(-1.10184e-29 1.22227e-13 -0)
(-1.36167e-30 2.23444e-14 -0)
(-4.85875e-30 1.14215e-13 -0)
(-5.39939e-30 4.54176e-14 -0)
(-9.43378e-31 4.18041e-15 -0)
(6.64025e-30 -4.1324e-14 -0)
(4.08686e-30 -4.89582e-14 -0)
(-2.29572e-30 -3.9688e-14 0)
(-1.60316e-32 -3.7852e-16 0)
(-4.4393e-31 -7.20324e-15 0)
(-3.50981e-31 -3.06841e-15 0)
(4.38191e-30 4.74678e-14 0)
(-4.06599e-30 4.55615e-14 -0)
(-8.26178e-31 8.95577e-15 -0)
(-8.45352e-26 -2.3281e-12 0)
(-2.30064e-26 3.13532e-12 -0)
(-1.51771e-27 -8.90153e-13 0)
(-2.75726e-29 8.26477e-14 -0)
(-7.29092e-30 -1.11527e-13 0)
(3.04125e-30 -9.6557e-14 -0)
(5.57932e-30 -1.0476e-13 -0)
(7.75471e-30 -1.1387e-13 -0)
(-1.38341e-31 -1.11221e-13 0)
(3.79838e-30 -9.47369e-14 -0)
(9.59341e-30 -7.07533e-14 -0)
(1.33716e-29 -9.1767e-14 -0)
(4.13133e-30 -1.32964e-13 -0)
(-9.73038e-30 -9.75694e-14 0)
(-7.62057e-30 -5.79636e-14 0)
(-1.04849e-29 -7.63858e-14 0)
(1.04957e-30 1.27719e-14 0)
(9.6683e-32 1.01308e-14 0)
(5.06638e-31 -2.64832e-14 -0)
(-1.85474e-31 -5.57907e-14 0)
(-1.13793e-25 3.02305e-12 -0)
(-2.65046e-26 -3.45012e-12 0)
(-1.64712e-27 9.22659e-13 -0)
(-1.8104e-29 -5.12873e-14 0)
(-3.47029e-29 1.84478e-13 -0)
(-4.46145e-30 3.2676e-14 -0)
(1.66399e-30 6.11143e-14 0)
(7.53303e-30 1.15056e-13 0)
(-3.68824e-30 9.42602e-14 -0)
(-5.21623e-30 8.15315e-14 -0)
(-3.58849e-30 8.69058e-14 -0)
(-1.00752e-29 8.40409e-14 -0)
(-5.52119e-30 8.05437e-14 -0)
(-1.20819e-29 1.07711e-13 -0)
(-6.7076e-30 1.09152e-13 -0)
(-7.25049e-30 6.06791e-14 -0)
(-2.64196e-30 2.09444e-14 -0)
(2.37665e-30 -4.10602e-14 -0)
(-1.14478e-31 -8.53688e-15 0)
(1.12411e-31 4.08965e-15 0)
(-5.00489e-27 3.9142e-13 -0)
(-2.30414e-27 -1.09927e-12 0)
(-6.48023e-29 1.47774e-13 -0)
(-4.8429e-30 -6.35413e-14 0)
(2.73579e-30 -3.68896e-14 -0)
(6.49527e-31 -6.69696e-15 -0)
(2.88799e-31 -4.01557e-14 -0)
(-7.18422e-31 -2.14335e-14 0)
(1.06823e-30 -1.67154e-14 -0)
(2.16533e-31 -3.07672e-15 -0)
(1.88972e-32 -5.70227e-16 -0)
(-6.9015e-32 1.0671e-15 -0)
(1.31793e-32 -3.00822e-16 -0)
(1.66506e-30 -2.70007e-14 -0)
(2.28134e-30 -5.08607e-14 -0)
(-1.62687e-31 1.70958e-15 -0)
(2.21915e-30 -3.58214e-14 -0)
(5.07942e-32 -6.35024e-15 -0)
(-4.74158e-36 -3.05558e-18 0)
(5.11278e-33 -6.41645e-16 -0)
)
;

boundaryField
{
    movingWall
    {
        type            calculated;
        value           nonuniform List<vector> 
20
(
(0 8.47001e-13 -0)
(0 -1.45684e-12 -0)
(0 -1.97696e-13 -0)
(0 -3.47299e-13 -0)
(0 -2.93542e-13 -0)
(0 -2.28742e-13 -0)
(0 -2.35095e-13 -0)
(0 -2.16373e-13 -0)
(0 -2.56064e-13 -0)
(0 -1.80712e-13 -0)
(0 -1.78206e-13 -0)
(0 -1.3216e-13 -0)
(0 -1.77937e-13 -0)
(0 -1.77531e-13 -0)
(0 -1.29877e-13 -0)
(0 -8.71083e-14 -0)
(0 -5.31252e-14 -0)
(0 -6.35024e-15 -0)
(0 -3.05558e-18 -0)
(0 -6.41645e-16 -0)
)
;
    }
    fixedWalls
    {
        type            calculated;
        value           nonuniform List<vector> 
60
(
(0 -3.11077e-11 -0)
(0 -1.98803e-12 -0)
(0 2.21457e-11 -0)
(0 -1.58236e-11 -0)
(0 4.76873e-12 -0)
(0 7.9523e-12 -0)
(0 -1.74034e-11 -0)
(0 7.11329e-12 -0)
(0 1.21577e-11 -0)
(0 -1.68783e-11 -0)
(0 8.8096e-12 -0)
(0 -6.09671e-12 -0)
(0 3.1561e-12 -0)
(0 6.98698e-12 -0)
(0 -1.85076e-11 -0)
(0 2.00407e-11 -0)
(0 -5.93397e-12 -0)
(0 -1.39551e-11 -0)
(0 1.50838e-11 -0)
(0 4.43698e-12 -0)
(0 2.70038e-14 -0)
(0 1.50583e-14 -0)
(0 -3.73155e-14 -0)
(0 -4.34669e-14 -0)
(0 1.5694e-14 -0)
(0 2.6186e-14 -0)
(0 4.10612e-15 -0)
(0 6.88169e-14 -0)
(0 1.30363e-14 -0)
(0 6.68769e-14 -0)
(0 1.84123e-14 -0)
(0 1.40769e-14 -0)
(0 9.60743e-15 -0)
(0 -2.47296e-15 -0)
(0 1.47028e-14 -0)
(0 3.15177e-14 -0)
(0 -9.79535e-15 -0)
(0 -5.28803e-14 -0)
(0 1.09947e-14 -0)
(0 -3.18729e-15 -0)
(0 -5.60026e-12 -0)
(0 7.78089e-12 -0)
(0 -7.88231e-13 -0)
(0 6.22525e-13 -0)
(0 2.33053e-13 -0)
(0 3.18825e-13 -0)
(0 2.55678e-13 -0)
(0 3.07226e-13 -0)
(0 1.80053e-13 -0)
(0 9.19011e-14 -0)
(0 8.84767e-14 -0)
(0 7.82206e-14 -0)
(0 3.84901e-14 -0)
(0 5.6766e-14 -0)
(0 2.10552e-14 -0)
(0 7.86357e-15 -0)
(0 -5.30925e-15 -0)
(0 -5.25366e-15 -0)
(0 8.29719e-14 -0)
(0 9.81776e-15 -0)
)
;
    }
    frontAndBack
    {
        type            empty;
    }
}


// ************************************************************************* //
