/*--------------------------------*- C++ -*----------------------------------*\
| =========                 |                                                 |
| \\      /  F ield         | OpenFOAM: The Open Source CFD Toolbox           |
|  \\    /   O peration     | Version:  2506                                  |
|   \\  /    A nd           | Website:  www.openfoam.com                      |
|    \\/     M anipulation  |                                                 |
\*---------------------------------------------------------------------------*/
FoamFile
{
    version     2.0;
    format      ascii;
    arch        "LSB;label=32;scalar=64";
    class       volScalarField;
    location    "8.125";
    object      QField;
}
// * * * * * * * * * * * * * * * * * * * * * * * * * * * * * * * * * * * * * //

dimensions      [0 0 -2 0 0 0 0];

internalField   nonuniform List<scalar> 
400
(
-6.72776e-25
-8.14717e-25
-1.25484e-25
2.65251e-26
-3.74744e-27
-2.53182e-28
1.08465e-27
-5.47996e-28
-1.54676e-27
-1.67146e-28
1.84927e-29
5.74475e-28
-5.238e-28
-1.33178e-27
-1.1414e-27
-4.26285e-28
0
4.40571e-29
0
-2.85024e-28
-2.22797e-24
-1.16669e-24
-7.76744e-26
-8.08282e-28
4.96726e-28
-1.40172e-28
-3.46337e-28
-1.10951e-27
0
0
0
0
0
6.31691e-28
0
0
0
-4.76934e-28
0
-8.71689e-28
-4.4025e-24
-1.16376e-24
6.42066e-26
1.529e-26
-6.85272e-28
4.26322e-28
4.60803e-28
0
4.81333e-29
3.91104e-28
5.7178e-28
-4.02669e-28
-4.40566e-28
5.66801e-28
7.65187e-28
6.93426e-28
3.68565e-28
5.78928e-29
0
0
-4.59798e-24
-1.27428e-24
2.41935e-26
-1.36558e-27
-1.39968e-27
1.29735e-28
8.30072e-28
1.35274e-27
2.47132e-28
-2.88736e-27
-3.85908e-28
5.58335e-28
-4.77221e-28
-2.74735e-28
3.19417e-28
8.75135e-29
0
-3.84639e-28
1.5017e-28
0
-1.22263e-24
-4.8243e-25
-2.71012e-26
-4.1784e-27
3.55492e-27
3.07419e-27
-7.18577e-28
2.01922e-27
1.83815e-27
0
0
4.96618e-28
-2.28513e-28
-1.21136e-30
-3.06787e-28
-4.16623e-28
7.02551e-29
1.49369e-28
-3.44623e-28
-8.11499e-28
-1.41726e-24
-3.98237e-25
1.05982e-26
2.14658e-28
-1.04587e-27
-3.31464e-28
4.44343e-28
2.47823e-27
-4.76786e-27
-1.74342e-27
4.40872e-28
1.15866e-28
-8.66387e-28
-2.54166e-28
2.25925e-28
-1.41978e-28
-1.25651e-28
-1.1577e-28
5.25829e-28
-5.7764e-28
1.1351e-24
-1.88545e-25
1.0874e-25
-5.23101e-27
3.67163e-27
2.92145e-28
1.28961e-28
-6.14751e-28
-9.59596e-28
1.13319e-29
-2.75495e-28
0
0
1.93884e-27
6.02351e-28
8.06042e-28
0
-5.8272e-29
0
-3.02689e-28
5.52226e-24
7.833e-25
6.44797e-26
5.5213e-27
1.66988e-27
2.79386e-28
3.78076e-28
2.24852e-28
-3.97295e-28
0
0
-4.72655e-28
-2.09175e-28
-2.40013e-28
-1.57219e-27
-7.13039e-28
0
-4.84139e-28
7.64354e-29
5.20215e-28
5.5514e-24
7.07516e-25
9.30914e-26
3.63451e-27
5.03945e-28
-2.61653e-28
0
-5.00331e-28
0
0
2.46739e-27
2.50802e-28
1.53658e-29
7.3881e-28
0
1.44639e-27
7.07234e-28
1.79327e-28
0
-8.06913e-28
4.32697e-24
2.88663e-25
1.41318e-25
0
0
1.10548e-27
3.70885e-28
-2.72228e-28
-1.82994e-28
-1.6951e-28
-2.46398e-28
-1.34691e-29
1.26858e-27
8.72439e-28
-1.00506e-27
3.34914e-28
0
-1.21473e-27
-3.90456e-28
7.42789e-28
3.37137e-24
4.481e-25
4.85494e-26
-5.82369e-27
6.93371e-28
-1.0142e-27
-1.94789e-28
0
-1.27746e-27
-1.1638e-27
-2.52031e-28
-2.34713e-27
-1.45353e-27
-2.32105e-28
7.4562e-28
1.66936e-28
-6.8185e-28
4.11869e-28
0
-8.01116e-28
2.10757e-24
5.45893e-25
2.02368e-26
3.7945e-28
1.52776e-29
1.33112e-27
2.34437e-27
2.19169e-27
4.43528e-28
-1.21461e-27
-3.22275e-28
1.19041e-28
0
0
5.88478e-28
-3.48475e-28
-2.3824e-28
-2.0279e-28
0
0
3.9274e-24
9.21117e-25
2.51747e-26
5.83485e-27
-3.65085e-28
-2.40823e-28
7.24489e-28
3.30739e-27
7.83956e-28
-9.52171e-28
2.55084e-28
0
-4.23048e-28
-8.02471e-28
-4.27928e-28
5.23961e-28
-4.2823e-28
4.8052e-28
-3.12234e-28
-1.81692e-28
6.62257e-24
1.355e-24
2.34447e-26
1.02513e-26
-7.92061e-28
0
-2.16396e-27
0
-7.81778e-28
0
0
-3.90431e-28
4.08321e-28
-7.86247e-29
0
2.1681e-29
-1.21414e-28
5.99812e-28
-3.26993e-28
-4.0187e-28
8.03953e-24
1.34579e-24
2.4201e-25
1.21049e-26
2.58323e-27
-9.93384e-28
3.03545e-28
1.06365e-27
1.94425e-27
2.78493e-27
1.71482e-27
-1.47442e-27
-1.4262e-27
3.43793e-28
6.03127e-28
7.09161e-29
-3.31096e-28
-1.90071e-28
1.91232e-28
-5.93829e-28
4.25878e-24
-3.58862e-26
2.45101e-25
-1.11132e-26
2.29212e-27
-1.26003e-27
3.53724e-29
-3.07974e-28
6.47643e-28
-7.46251e-28
-2.5425e-27
-4.03991e-28
1.70775e-30
-1.78112e-28
-1.30785e-28
-4.61364e-28
-3.93849e-28
-9.97335e-29
1.79622e-28
-1.09717e-27
1.17127e-24
-3.38625e-25
-6.18372e-26
4.00307e-27
4.24198e-28
1.36839e-27
1.49689e-27
-3.30568e-28
3.99973e-28
3.05333e-28
0
3.85406e-28
5.92331e-28
3.41062e-28
0
-4.00402e-28
-1.96741e-28
4.58089e-28
5.08779e-28
-4.50157e-28
-1.21529e-24
-1.24864e-24
1.0532e-25
-1.18309e-26
2.45669e-27
-3.02359e-27
-7.15009e-28
-9.43739e-29
3.03654e-28
-1.48355e-27
-1.35859e-27
8.49895e-28
2.58015e-27
4.0007e-28
2.03476e-28
-8.91757e-28
-1.3039e-27
-8.14211e-28
-2.95095e-28
-2.38864e-28
-2.04805e-24
-1.09964e-24
1.21631e-25
-1.50938e-26
6.63434e-27
-1.16737e-27
-1.64264e-27
7.1943e-28
1.05263e-27
1.75923e-29
4.54605e-28
2.21642e-28
-6.27307e-29
-5.14409e-28
7.93537e-29
-9.0929e-28
-1.66986e-28
3.78255e-28
0
0
-1.7767e-25
-2.20355e-25
-4.92219e-27
2.15098e-27
-1.64985e-27
-6.3297e-28
3.5374e-28
-4.22043e-28
-5.60889e-28
-3.64172e-28
0
-5.00251e-28
3.04552e-28
-2.82966e-30
-4.69719e-28
-5.81812e-28
-2.7357e-28
0
0
0
)
;

boundaryField
{
    movingWall
    {
        type            calculated;
        value           nonuniform List<scalar> 
20
(
3.17151e-25
2.2873e-25
-7.59745e-26
1.2153e-26
-6.18835e-27
4.35474e-28
2.89784e-27
-1.62274e-27
-3.46124e-27
-2.16502e-28
1.01293e-28
-8.43379e-28
5.28434e-28
-1.85444e-29
-9.32553e-28
-1.18359e-27
-2.84588e-28
0
0
0
)
;
    }
    fixedWalls
    {
        type            calculated;
        value           nonuniform List<scalar> 
60
(
-8.09513e-24
-1.5818e-23
-2.36531e-23
-1.95529e-23
-7.48545e-24
-7.48519e-24
5.54961e-24
2.29487e-23
2.36991e-23
2.11256e-23
1.62032e-23
1.00136e-23
1.88659e-23
3.07252e-23
3.88555e-23
2.09132e-23
-7.21017e-25
-8.97821e-24
-1.15839e-23
-2.34606e-24
0
-1.42818e-27
0
0
-3.09299e-28
-9.46405e-28
-8.45981e-28
1.03146e-27
-1.08803e-27
1.01833e-27
-1.23375e-27
0
-4.74274e-28
-6.58424e-28
-1.20965e-27
-1.62807e-27
-8.97508e-28
-6.0383e-28
0
0
3.52013e-24
2.00225e-24
-1.16503e-24
1.27739e-25
-2.25784e-26
2.25469e-27
-2.12471e-27
-2.51899e-27
-2.9923e-27
2.73852e-28
-3.02985e-29
-9.4122e-28
-2.21808e-27
-1.25653e-27
0
0
0
9.81207e-29
-5.19224e-28
-7.31939e-28
)
;
    }
    frontAndBack
    {
        type            empty;
    }
}


// ************************************************************************* //
