/*--------------------------------*- C++ -*----------------------------------*\
| =========                 |                                                 |
| \\      /  F ield         | OpenFOAM: The Open Source CFD Toolbox           |
|  \\    /   O peration     | Version:  2506                                  |
|   \\  /    A nd           | Website:  www.openfoam.com                      |
|    \\/     M anipulation  |                                                 |
\*---------------------------------------------------------------------------*/
FoamFile
{
    version     2.0;
    format      ascii;
    arch        "LSB;label=32;scalar=64";
    class       volVectorField;
    location    "8.125";
    object      vorticityField;
}
// * * * * * * * * * * * * * * * * * * * * * * * * * * * * * * * * * * * * * //

dimensions      [0 0 -1 0 0 0 0];

internalField   nonuniform List<vector> 
400
(
(0 -0 5.83271e-12)
(0 -0 -7.40601e-12)
(0 -0 1.46187e-12)
(0 -0 -4.10282e-13)
(0 -0 2.35992e-14)
(0 -0 -3.50672e-14)
(0 -0 6.49852e-14)
(0 -0 3.63602e-15)
(0 -0 -2.4174e-15)
(0 -0 5.11268e-14)
(0 -0 5.45512e-14)
(0 -0 6.48073e-14)
(0 -0 6.01289e-14)
(0 -0 4.1853e-14)
(0 -0 3.3155e-14)
(0 -0 4.63465e-14)
(0 -0 5.30925e-15)
(0 -0 5.94638e-14)
(0 -0 5.84594e-15)
(0 -0 -9.81776e-15)
(0 -0 4.61539e-13)
(0 -0 -4.6467e-13)
(0 -0 1.80154e-13)
(0 -0 -2.7153e-15)
(0 -0 8.74238e-14)
(0 -0 9.03813e-14)
(0 -0 1.92445e-14)
(0 -0 5.11293e-14)
(0 -0 -5.61295e-15)
(0 -0 -1.28764e-14)
(0 -0 2.15882e-15)
(0 -0 1.75033e-14)
(0 -0 3.8138e-15)
(0 -0 -7.25655e-14)
(0 -0 -1.63723e-14)
(0 -0 -4.21744e-15)
(0 -0 -1.18336e-15)
(0 -0 5.59258e-15)
(0 -0 1.35515e-14)
(0 -0 8.69978e-17)
(0 -0 -3.45236e-12)
(0 -0 5.35057e-12)
(0 -0 -1.23861e-12)
(0 -0 2.97129e-13)
(0 -0 -4.79687e-14)
(0 -0 4.28336e-14)
(0 -0 -4.41057e-14)
(0 -0 -1.90162e-15)
(0 -0 6.89256e-14)
(0 -0 -8.55644e-14)
(0 -0 -6.8322e-14)
(0 -0 -7.63632e-14)
(0 -0 -4.60831e-14)
(0 -0 -6.46657e-14)
(0 -0 -9.43564e-14)
(0 -0 -6.70016e-14)
(0 -0 -4.07027e-14)
(0 -0 -5.5278e-14)
(0 -0 7.36185e-15)
(0 -0 2.30419e-14)
(0 -0 2.9151e-12)
(0 -0 -3.67495e-12)
(0 -0 8.88856e-13)
(0 -0 -1.85389e-13)
(0 -0 4.99565e-14)
(0 -0 -3.18914e-14)
(0 -0 -6.95222e-14)
(0 -0 -1.09653e-13)
(0 -0 -5.87689e-14)
(0 -0 -1.90252e-14)
(0 -0 -5.24938e-14)
(0 -0 -5.11852e-14)
(0 -0 -5.20475e-14)
(0 -0 -5.55907e-15)
(0 -0 -3.40959e-14)
(0 -0 -3.03337e-14)
(0 -0 -2.32923e-15)
(0 -0 -1.03322e-14)
(0 -0 -3.26453e-14)
(0 -0 2.42076e-14)
(0 -0 -1.32641e-12)
(0 -0 1.03516e-12)
(0 -0 -2.38125e-13)
(0 -0 -5.82589e-14)
(0 -0 -1.41209e-13)
(0 -0 -1.62718e-13)
(0 -0 -1.05859e-13)
(0 -0 -1.05827e-13)
(0 -0 -1.25374e-13)
(0 -0 2.46576e-14)
(0 -0 4.84351e-14)
(0 -0 4.95024e-14)
(0 -0 1.68397e-14)
(0 -0 -1.23026e-14)
(0 -0 3.53445e-15)
(0 -0 9.1035e-16)
(0 -0 -3.80198e-14)
(0 -0 -1.55233e-14)
(0 -0 -2.74578e-14)
(0 -0 -1.45793e-14)
(0 -0 -1.43229e-12)
(0 -0 1.88499e-12)
(0 -0 -4.71503e-13)
(0 -0 1.12383e-13)
(0 -0 8.02505e-15)
(0 -0 4.80957e-14)
(0 -0 6.24068e-14)
(0 -0 1.31278e-13)
(0 -0 7.34535e-14)
(0 -0 4.35278e-14)
(0 -0 6.23428e-14)
(0 -0 5.63475e-14)
(0 -0 2.5237e-14)
(0 -0 3.46992e-14)
(0 -0 3.54402e-14)
(0 -0 2.08807e-14)
(0 -0 -1.21892e-14)
(0 -0 -5.58791e-15)
(0 -0 3.34672e-14)
(0 -0 -6.27267e-15)
(0 -0 3.7451e-12)
(0 -0 -4.02859e-12)
(0 -0 9.28543e-13)
(0 -0 -1.64031e-13)
(0 -0 1.43895e-13)
(0 -0 8.49079e-14)
(0 -0 8.78341e-14)
(0 -0 8.36033e-14)
(0 -0 8.535e-14)
(0 -0 5.29253e-15)
(0 -0 4.93113e-14)
(0 -0 -2.64131e-14)
(0 -0 -8.37334e-15)
(0 -0 1.05159e-13)
(0 -0 4.01114e-14)
(0 -0 -6.39856e-14)
(0 -0 -7.62984e-15)
(0 -0 -2.49552e-14)
(0 -0 6.03168e-15)
(0 -0 1.59378e-14)
(0 -0 -2.04811e-12)
(0 -0 1.57662e-12)
(0 -0 -4.43678e-13)
(0 -0 6.83666e-14)
(0 -0 -1.01851e-13)
(0 -0 -5.93639e-14)
(0 -0 -6.11844e-14)
(0 -0 -3.54006e-14)
(0 -0 -4.68813e-14)
(0 -0 1.34379e-14)
(0 -0 3.98375e-15)
(0 -0 5.36784e-16)
(0 -0 3.38269e-16)
(0 -0 -5.45984e-14)
(0 -0 -2.74321e-14)
(0 -0 -7.94212e-17)
(0 -0 5.42115e-15)
(0 -0 8.75457e-15)
(0 -0 2.9925e-14)
(0 -0 -4.85301e-14)
(0 -0 -2.51379e-12)
(0 -0 2.80533e-12)
(0 -0 -7.00802e-13)
(0 -0 1.50922e-13)
(0 -0 -5.61756e-15)
(0 -0 1.25899e-14)
(0 -0 8.1422e-15)
(0 -0 -4.49806e-14)
(0 -0 -4.82113e-15)
(0 -0 -2.9933e-14)
(0 -0 -1.33357e-13)
(0 -0 -2.2275e-14)
(0 -0 -2.7672e-14)
(0 -0 -6.7249e-14)
(0 -0 9.48454e-15)
(0 -0 8.55037e-14)
(0 -0 7.75951e-14)
(0 -0 3.3721e-14)
(0 -0 -9.59736e-15)
(0 -0 -2.66478e-15)
(0 -0 4.68331e-12)
(0 -0 -3.7417e-12)
(0 -0 9.07876e-13)
(0 -0 -1.79276e-13)
(0 -0 1.14657e-14)
(0 -0 -7.46025e-14)
(0 -0 -4.07883e-14)
(0 -0 -6.10555e-14)
(0 -0 -5.08345e-14)
(0 -0 -2.71875e-14)
(0 -0 1.80146e-14)
(0 -0 2.66081e-14)
(0 -0 9.69159e-14)
(0 -0 7.03038e-14)
(0 -0 1.16139e-13)
(0 -0 8.48428e-14)
(0 -0 -2.91067e-15)
(0 -0 6.22374e-15)
(0 -0 1.44184e-15)
(0 -0 -5.58531e-14)
(0 -0 -3.00296e-12)
(0 -0 1.89787e-12)
(0 -0 -4.93757e-13)
(0 -0 4.59765e-15)
(0 -0 -1.11838e-13)
(0 -0 2.85513e-15)
(0 -0 -5.06169e-14)
(0 -0 2.2233e-14)
(0 -0 1.5745e-14)
(0 -0 -3.29005e-14)
(0 -0 -4.22555e-14)
(0 -0 -6.22634e-14)
(0 -0 -4.0968e-14)
(0 -0 -1.85419e-14)
(0 -0 -9.04847e-14)
(0 -0 -8.74661e-14)
(0 -0 -7.96014e-16)
(0 -0 6.12139e-14)
(0 -0 1.41545e-14)
(0 -0 1.03965e-14)
(0 -0 2.09983e-12)
(0 -0 -1.45672e-12)
(0 -0 2.83756e-13)
(0 -0 -4.57924e-14)
(0 -0 9.83824e-14)
(0 -0 1.20698e-13)
(0 -0 1.52824e-13)
(0 -0 1.52569e-13)
(0 -0 1.50994e-13)
(0 -0 5.50114e-14)
(0 -0 5.49871e-14)
(0 -0 5.6406e-14)
(0 -0 -9.09849e-15)
(0 -0 -2.10363e-14)
(0 -0 -6.83198e-14)
(0 -0 9.38114e-16)
(0 -0 -1.83155e-14)
(0 -0 2.59456e-15)
(0 -0 -4.38806e-15)
(0 -0 -6.11724e-15)
(0 -0 -9.22406e-13)
(0 -0 7.52065e-13)
(0 -0 -7.27522e-14)
(0 -0 8.08343e-14)
(0 -0 -1.30409e-14)
(0 -0 -5.44255e-14)
(0 -0 -9.02248e-14)
(0 -0 -1.38926e-13)
(0 -0 -9.09561e-14)
(0 -0 -1.58546e-14)
(0 -0 1.59329e-14)
(0 -0 1.89701e-14)
(0 -0 5.56537e-15)
(0 -0 1.4921e-15)
(0 -0 3.05922e-14)
(0 -0 -3.15546e-14)
(0 -0 -6.17083e-15)
(0 -0 -6.30741e-14)
(0 -0 -9.0809e-15)
(0 -0 -2.04018e-14)
(0 -0 -1.94063e-12)
(0 -0 1.69068e-12)
(0 -0 -3.08948e-13)
(0 -0 1.1835e-13)
(0 -0 -2.76237e-14)
(0 -0 2.64455e-15)
(0 -0 -1.86209e-15)
(0 -0 -4.87168e-15)
(0 -0 -2.567e-14)
(0 -0 1.62037e-14)
(0 -0 1.02369e-14)
(0 -0 -4.00086e-15)
(0 -0 -6.3693e-14)
(0 -0 -2.28962e-14)
(0 -0 8.13385e-15)
(0 -0 -2.79049e-14)
(0 -0 2.26257e-14)
(0 -0 -6.52747e-14)
(0 -0 -2.69722e-15)
(0 -0 3.77993e-15)
(0 -0 5.01862e-12)
(0 -0 -4.23755e-12)
(0 -0 1.05405e-12)
(0 -0 -2.58436e-13)
(0 -0 1.11873e-13)
(0 -0 6.90987e-14)
(0 -0 1.1122e-13)
(0 -0 1.18231e-13)
(0 -0 1.74683e-13)
(0 -0 1.34107e-13)
(0 -0 9.71324e-14)
(0 -0 6.82441e-14)
(0 -0 4.4063e-14)
(0 -0 6.0552e-14)
(0 -0 8.87323e-14)
(0 -0 5.55183e-14)
(0 -0 4.81025e-14)
(0 -0 5.07039e-14)
(0 -0 5.72705e-14)
(0 -0 6.91805e-15)
(0 -0 -4.76374e-12)
(0 -0 4.52612e-12)
(0 -0 -1.17531e-12)
(0 -0 1.63238e-13)
(0 -0 -1.16452e-13)
(0 -0 -8.05882e-14)
(0 -0 -2.84101e-14)
(0 -0 -8.12257e-14)
(0 -0 -8.92798e-14)
(0 -0 -8.03381e-14)
(0 -0 -7.75339e-14)
(0 -0 -1.12769e-13)
(0 -0 -5.42416e-14)
(0 -0 -2.05339e-14)
(0 -0 -4.79487e-14)
(0 -0 -1.742e-14)
(0 -0 -4.87475e-14)
(0 -0 -6.81581e-15)
(0 -0 -5.75235e-14)
(0 -0 -2.5981e-14)
(0 -0 8.52537e-13)
(0 -0 -1.36025e-12)
(0 -0 2.92362e-13)
(0 -0 -5.36802e-15)
(0 -0 2.782e-14)
(0 -0 -7.94525e-14)
(0 -0 -1.22227e-13)
(0 -0 -2.23444e-14)
(0 -0 -1.14215e-13)
(0 -0 -4.54176e-14)
(0 -0 -4.18041e-15)
(0 -0 4.1324e-14)
(0 -0 4.89582e-14)
(0 -0 3.9688e-14)
(0 -0 3.7852e-16)
(0 -0 7.20324e-15)
(0 -0 3.06841e-15)
(0 -0 -4.74678e-14)
(0 -0 -4.55615e-14)
(0 -0 -8.95577e-15)
(0 -0 2.3281e-12)
(0 -0 -3.13532e-12)
(0 -0 8.90153e-13)
(0 -0 -8.26477e-14)
(0 -0 1.11527e-13)
(0 -0 9.6557e-14)
(0 -0 1.0476e-13)
(0 -0 1.1387e-13)
(0 -0 1.11221e-13)
(0 -0 9.47369e-14)
(0 -0 7.07533e-14)
(0 -0 9.1767e-14)
(0 -0 1.32964e-13)
(0 -0 9.75694e-14)
(0 -0 5.79636e-14)
(0 -0 7.63858e-14)
(0 -0 -1.27719e-14)
(0 -0 -1.01308e-14)
(0 -0 2.64832e-14)
(0 -0 5.57907e-14)
(0 -0 -3.02305e-12)
(0 -0 3.45012e-12)
(0 -0 -9.22659e-13)
(0 -0 5.12873e-14)
(0 -0 -1.84478e-13)
(0 -0 -3.2676e-14)
(0 -0 -6.11143e-14)
(0 -0 -1.15056e-13)
(0 -0 -9.42602e-14)
(0 -0 -8.15315e-14)
(0 -0 -8.69058e-14)
(0 -0 -8.40409e-14)
(0 -0 -8.05437e-14)
(0 -0 -1.07711e-13)
(0 -0 -1.09152e-13)
(0 -0 -6.06791e-14)
(0 -0 -2.09444e-14)
(0 -0 4.10602e-14)
(0 -0 8.53688e-15)
(0 -0 -4.08965e-15)
(0 -0 -3.9142e-13)
(0 -0 1.09927e-12)
(0 -0 -1.47774e-13)
(0 -0 6.35413e-14)
(0 -0 3.68896e-14)
(0 -0 6.69696e-15)
(0 -0 4.01557e-14)
(0 -0 2.14335e-14)
(0 -0 1.67154e-14)
(0 -0 3.07672e-15)
(0 -0 5.70227e-16)
(0 -0 -1.0671e-15)
(0 -0 3.00822e-16)
(0 -0 2.70007e-14)
(0 -0 5.08607e-14)
(0 -0 -1.70958e-15)
(0 -0 3.58214e-14)
(0 -0 6.35024e-15)
(0 -0 3.05558e-18)
(0 -0 6.41645e-16)
)
;

boundaryField
{
    movingWall
    {
        type            calculated;
        value           nonuniform List<vector> 
20
(
(0 -0 -8.47001e-13)
(0 -0 1.45684e-12)
(0 -0 1.97696e-13)
(0 -0 3.47299e-13)
(0 -0 2.93542e-13)
(0 -0 2.28742e-13)
(0 -0 2.35095e-13)
(0 -0 2.16373e-13)
(0 -0 2.56064e-13)
(0 -0 1.80712e-13)
(0 -0 1.78206e-13)
(0 -0 1.3216e-13)
(0 -0 1.77937e-13)
(0 -0 1.77531e-13)
(0 -0 1.29877e-13)
(0 -0 8.71083e-14)
(0 -0 5.31252e-14)
(0 -0 6.35024e-15)
(0 -0 3.05558e-18)
(0 -0 6.41645e-16)
)
;
    }
    fixedWalls
    {
        type            calculated;
        value           nonuniform List<vector> 
60
(
(0 -0 3.11077e-11)
(0 -0 1.98803e-12)
(0 -0 -2.21457e-11)
(0 -0 1.58236e-11)
(0 -0 -4.76873e-12)
(0 -0 -7.9523e-12)
(0 -0 1.74034e-11)
(0 -0 -7.11329e-12)
(0 -0 -1.21577e-11)
(0 -0 1.68783e-11)
(0 -0 -8.8096e-12)
(0 -0 6.09671e-12)
(0 -0 -3.1561e-12)
(0 -0 -6.98698e-12)
(0 -0 1.85076e-11)
(0 -0 -2.00407e-11)
(0 -0 5.93397e-12)
(0 -0 1.39551e-11)
(0 -0 -1.50838e-11)
(0 -0 -4.43698e-12)
(0 -0 -2.70038e-14)
(0 -0 -1.50583e-14)
(0 -0 3.73155e-14)
(0 -0 4.34669e-14)
(0 -0 -1.5694e-14)
(0 -0 -2.6186e-14)
(0 -0 -4.10612e-15)
(0 -0 -6.88169e-14)
(0 -0 -1.30363e-14)
(0 -0 -6.68769e-14)
(0 -0 -1.84123e-14)
(0 -0 -1.40769e-14)
(0 -0 -9.60743e-15)
(0 -0 2.47296e-15)
(0 -0 -1.47028e-14)
(0 -0 -3.15177e-14)
(0 -0 9.79535e-15)
(0 -0 5.28803e-14)
(0 -0 -1.09947e-14)
(0 -0 3.18729e-15)
(0 -0 5.60026e-12)
(0 -0 -7.78089e-12)
(0 -0 7.88231e-13)
(0 -0 -6.22525e-13)
(0 -0 -2.33053e-13)
(0 -0 -3.18825e-13)
(0 -0 -2.55678e-13)
(0 -0 -3.07226e-13)
(0 -0 -1.80053e-13)
(0 -0 -9.19011e-14)
(0 -0 -8.84767e-14)
(0 -0 -7.82206e-14)
(0 -0 -3.84901e-14)
(0 -0 -5.6766e-14)
(0 -0 -2.10552e-14)
(0 -0 -7.86357e-15)
(0 -0 5.30925e-15)
(0 -0 5.25366e-15)
(0 -0 -8.29719e-14)
(0 -0 -9.81776e-15)
)
;
    }
    frontAndBack
    {
        type            empty;
    }
}


// ************************************************************************* //
