/*--------------------------------*- C++ -*----------------------------------*\
| =========                 |                                                 |
| \\      /  F ield         | OpenFOAM: The Open Source CFD Toolbox           |
|  \\    /   O peration     | Version:  2506                                  |
|   \\  /    A nd           | Website:  www.openfoam.com                      |
|    \\/     M anipulation  |                                                 |
\*---------------------------------------------------------------------------*/
FoamFile
{
    version     2.0;
    format      ascii;
    arch        "LSB;label=32;scalar=64";
    class       volVectorField;
    location    "8.125";
    object      zeroGradient(U);
}
// * * * * * * * * * * * * * * * * * * * * * * * * * * * * * * * * * * * * * //

dimensions      [0 1 -1 0 0 0 0];

internalField   nonuniform List<vector> 
400
(
(-1 7.88535e-14 0)
(-1 -1.61896e-14 0)
(-1 3.70918e-15 0)
(-1 -7.57761e-16 0)
(-1 1.48461e-16 0)
(-1 2.03325e-17 0)
(-1 6.88389e-17 0)
(-1 1.28084e-16 0)
(-1 1.05199e-16 0)
(-1 1.0391e-16 0)
(-1 7.43661e-17 0)
(-1 1.07321e-16 0)
(-1 1.80338e-16 0)
(-1 1.66509e-16 0)
(-1 5.67672e-17 0)
(-1 -4.40424e-17 0)
(-1 -2.18685e-17 0)
(-1 9.05004e-18 0)
(-1 3.06681e-17 0)
(-1 6.75095e-17 0)
(-1 4.97007e-15 0)
(-1 -3.54675e-16 0)
(-1 3.23368e-16 0)
(-1 9.16103e-17 0)
(-1 2.51643e-17 0)
(-1 1.52697e-16 0)
(-1 1.15826e-16 0)
(-1 7.40911e-17 0)
(-1 8.50182e-17 0)
(-1 1.79616e-17 0)
(-1 -4.37461e-17 0)
(-1 3.95498e-17 0)
(-1 1.31287e-16 0)
(-1 7.76878e-17 0)
(-1 -5.2267e-17 0)
(-1 -8.60354e-17 0)
(-1 -9.44414e-17 0)
(-1 -9.7869e-17 0)
(-1 -3.85156e-17 0)
(-1 3.76457e-17 0)
(-1 -5.81425e-14 0)
(-1 1.25059e-14 0)
(-1 -2.46847e-15 0)
(-1 6.61869e-16 0)
(-1 -3.92759e-17 0)
(-1 1.82182e-16 0)
(-1 1.18009e-16 0)
(-1 1.21759e-17 0)
(-1 9.89929e-17 0)
(-1 1.5933e-16 0)
(-1 5.65006e-17 0)
(-1 1.82118e-17 0)
(-1 1.0602e-16 0)
(-1 9.94818e-17 0)
(-1 1.46393e-18 0)
(-1 -3.0931e-17 0)
(-1 -1.26451e-16 0)
(-1 -1.66907e-16 0)
(-1 -1.3713e-16 0)
(-1 -9.32888e-17 0)
(-1 4.02367e-14 0)
(-1 -8.37512e-15 0)
(-1 2.13188e-15 0)
(-1 -2.99709e-16 0)
(-1 2.77985e-16 0)
(-1 1.99856e-16 0)
(-1 2.30121e-16 0)
(-1 4.67345e-17 0)
(-1 -5.32573e-17 0)
(-1 1.1468e-18 0)
(-1 2.75416e-17 0)
(-1 1.83103e-17 0)
(-1 5.77909e-17 0)
(-1 3.99363e-17 0)
(-1 2.20016e-18 0)
(-1 -2.99721e-17 0)
(-1 -3.00866e-17 0)
(-1 -5.32643e-17 0)
(-1 -1.33409e-16 0)
(-1 -1.08667e-16 0)
(-1 -1.06343e-14 0)
(-1 2.52016e-15 0)
(-1 -2.82694e-16 0)
(-1 4.09964e-16 0)
(-1 2.1892e-16 0)
(-1 8.20804e-17 0)
(-1 -5.3009e-17 0)
(-1 -1.63355e-16 0)
(-1 -2.98123e-16 0)
(-1 -3.32895e-16 0)
(-1 -5.15474e-17 0)
(-1 1.51456e-16 0)
(-1 1.72426e-16 0)
(-1 4.88021e-17 0)
(-1 4.93996e-17 0)
(-1 8.41466e-17 0)
(-1 5.85031e-17 0)
(-1 -2.50005e-17 0)
(-1 -9.67302e-17 0)
(-1 -2.85278e-17 0)
(-1 -2.02873e-14 0)
(-1 4.33812e-15 0)
(-1 -8.95314e-16 0)
(-1 1.65187e-16 0)
(-1 -4.25391e-17 0)
(-1 -2.5613e-17 0)
(-1 -1.03683e-16 0)
(-1 5.63539e-17 0)
(-1 1.24893e-16 0)
(-1 -2.22625e-17 0)
(-1 1.807e-17 0)
(-1 5.9064e-17 0)
(-1 3.94434e-17 0)
(-1 4.03832e-17 0)
(-1 1.15384e-16 0)
(-1 1.23735e-16 0)
(-1 5.31409e-17 0)
(-1 1.84314e-18 0)
(-1 -2.73826e-18 0)
(-1 6.5465e-17 0)
(-1 4.27632e-14 0)
(-1 -8.29379e-15 0)
(-1 1.93522e-15 0)
(-1 -3.63617e-16 0)
(-1 2.38631e-17 0)
(-1 -8.87107e-18 0)
(-1 5.97907e-17 0)
(-1 5.63184e-17 0)
(-1 8.2672e-17 0)
(-1 9.66672e-17 0)
(-1 1.35597e-16 0)
(-1 4.76796e-17 0)
(-1 -1.28534e-16 0)
(-1 -3.60538e-17 0)
(-1 1.09901e-16 0)
(-1 9.40095e-17 0)
(-1 1.2146e-17 0)
(-1 1.77111e-17 0)
(-1 3.36446e-17 0)
(-1 7.80279e-17 0)
(-1 -1.58859e-14 0)
(-1 2.99421e-15 0)
(-1 -6.61817e-16 0)
(-1 1.83732e-16 0)
(-1 2.18492e-17 0)
(-1 -2.16271e-17 0)
(-1 -2.96884e-17 0)
(-1 -9.13697e-17 0)
(-1 -1.12644e-16 0)
(-1 -1.80817e-17 0)
(-1 2.17345e-17 0)
(-1 2.17558e-17 0)
(-1 2.71023e-17 0)
(-1 2.51385e-17 0)
(-1 2.32196e-17 0)
(-1 2.18685e-17 0)
(-1 2.24254e-17 0)
(-1 7.608e-17 0)
(-1 1.09971e-16 0)
(-1 1.0428e-16 0)
(-1 -3.01232e-14 0)
(-1 6.06946e-15 0)
(-1 -1.52775e-15 0)
(-1 1.45633e-16 0)
(-1 -1.85265e-17 0)
(-1 8.94575e-17 0)
(-1 1.07372e-16 0)
(-1 1.70879e-16 0)
(-1 1.99667e-16 0)
(-1 1.22668e-16 0)
(-1 -9.96625e-17 0)
(-1 -1.26699e-16 0)
(-1 -5.13616e-17 0)
(-1 -1.32368e-16 0)
(-1 -1.81751e-16 0)
(-1 -3.7523e-17 0)
(-1 1.31185e-16 0)
(-1 1.96327e-16 0)
(-1 1.97345e-16 0)
(-1 1.00353e-16 0)
(-1 3.83333e-14 0)
(-1 -6.9501e-15 0)
(-1 2.00053e-15 0)
(-1 -3.97508e-17 0)
(-1 2.07772e-16 0)
(-1 7.49059e-17 0)
(-1 3.84781e-18 0)
(-1 -6.19265e-17 0)
(-1 -6.46063e-17 0)
(-1 -2.81701e-17 0)
(-1 -6.54303e-17 0)
(-1 -1.19075e-16 0)
(-1 -7.03996e-17 0)
(-1 3.69329e-17 0)
(-1 9.05371e-17 0)
(-1 1.14118e-16 0)
(-1 1.25814e-16 0)
(-1 8.50112e-17 0)
(-1 1.88051e-16 0)
(-1 9.94296e-17 0)
(-1 -1.80938e-14 0)
(-1 3.78515e-15 0)
(-1 -7.4134e-16 0)
(-1 2.02832e-16 0)
(-1 -1.53262e-16 0)
(-1 -1.02395e-16 0)
(-1 -1.24711e-16 0)
(-1 -6.64631e-17 0)
(-1 9.76191e-17 0)
(-1 9.09871e-17 0)
(-1 3.96648e-17 0)
(-1 -6.0517e-17 0)
(-1 -4.08681e-17 0)
(-1 7.19038e-17 0)
(-1 4.47634e-17 0)
(-1 -1.97912e-17 0)
(-1 -1.67462e-17 0)
(-1 -2.77514e-17 0)
(-1 5.32921e-17 0)
(-1 1.13793e-16 0)
(-1 1.24635e-14 0)
(-1 -2.57831e-15 0)
(-1 3.35759e-16 0)
(-1 -2.82853e-16 0)
(-1 -1.22165e-16 0)
(-1 -1.1218e-16 0)
(-1 6.09099e-19 0)
(-1 6.08036e-17 0)
(-1 1.71044e-16 0)
(-1 2.15489e-16 0)
(-1 1.79057e-16 0)
(-1 2.2326e-16 0)
(-1 2.01016e-16 0)
(-1 1.32275e-16 0)
(-1 -9.34671e-18 0)
(-1 -8.82216e-18 0)
(-1 3.44258e-20 0)
(-1 7.9073e-17 0)
(-1 2.598e-17 0)
(-1 3.51924e-17 0)
(-1 -7.14486e-15 0)
(-1 9.02355e-16 0)
(-1 -1.66314e-16 0)
(-1 1.74834e-16 0)
(-1 9.99279e-17 0)
(-1 4.44248e-17 0)
(-1 9.77738e-17 0)
(-1 -4.46716e-17 0)
(-1 -2.07279e-16 0)
(-1 -1.41081e-16 0)
(-1 -9.47745e-17 0)
(-1 1.82484e-17 0)
(-1 9.49264e-17 0)
(-1 7.39021e-17 0)
(-1 1.09847e-16 0)
(-1 1.08773e-16 0)
(-1 6.53517e-17 0)
(-1 4.70649e-17 0)
(-1 -2.32886e-17 0)
(-1 -4.37441e-17 0)
(-1 -1.57056e-14 0)
(-1 3.34669e-15 0)
(-1 -6.9622e-16 0)
(-1 2.57213e-16 0)
(-1 -5.48184e-17 0)
(-1 -1.90243e-17 0)
(-1 -2.83729e-17 0)
(-1 -3.76452e-17 0)
(-1 -7.70897e-17 0)
(-1 -2.32947e-17 0)
(-1 8.49474e-17 0)
(-1 7.90743e-17 0)
(-1 4.49388e-17 0)
(-1 -1.57548e-17 0)
(-1 8.70277e-17 0)
(-1 6.55837e-17 0)
(-1 7.90288e-17 0)
(-1 2.07898e-17 0)
(-1 -3.16169e-17 0)
(-1 -6.18239e-18 0)
(-1 4.22032e-14 0)
(-1 -8.28002e-15 0)
(-1 1.99608e-15 0)
(-1 -4.49985e-16 0)
(-1 -4.61815e-17 0)
(-1 -1.44407e-16 0)
(-1 -1.68346e-16 0)
(-1 -1.1641e-16 0)
(-1 -7.02419e-17 0)
(-1 4.11969e-18 0)
(-1 1.86623e-16 0)
(-1 1.62292e-16 0)
(-1 5.5912e-17 0)
(-1 6.08206e-17 0)
(-1 1.19331e-16 0)
(-1 1.34992e-16 0)
(-1 1.32412e-16 0)
(-1 7.39157e-17 0)
(-1 9.73503e-17 0)
(-1 1.0452e-16 0)
(-1 -4.77978e-14 0)
(-1 9.37612e-15 0)
(-1 -2.26561e-15 0)
(-1 3.33492e-16 0)
(-1 -9.11278e-17 0)
(-1 -1.78756e-17 0)
(-1 -8.38587e-17 0)
(-1 -3.09257e-17 0)
(-1 -8.29641e-17 0)
(-1 -1.10572e-16 0)
(-1 -7.31934e-17 0)
(-1 -7.27589e-17 0)
(-1 -1.16677e-16 0)
(-1 -7.30739e-17 0)
(-1 -5.0965e-17 0)
(-1 -1.04596e-17 0)
(-1 4.58854e-17 0)
(-1 4.4166e-17 0)
(-1 -2.22726e-17 0)
(-1 1.10316e-17 0)
(-1 1.57158e-14 0)
(-1 -3.6668e-15 0)
(-1 7.58058e-16 0)
(-1 -2.01076e-16 0)
(-1 1.62277e-16 0)
(-1 7.71238e-17 0)
(-1 -9.01474e-17 0)
(-1 -6.09402e-17 0)
(-1 -4.25405e-17 0)
(-1 -1.18883e-16 0)
(-1 -2.25666e-16 0)
(-1 -1.60687e-16 0)
(-1 -8.34766e-17 0)
(-1 5.78441e-17 0)
(-1 4.23532e-17 0)
(-1 6.16293e-17 0)
(-1 1.14386e-16 0)
(-1 9.23133e-17 0)
(-1 -8.92419e-17 0)
(-1 -9.2251e-17 0)
(-1 3.63108e-14 0)
(-1 -7.33779e-15 0)
(-1 1.705e-15 0)
(-1 -3.33616e-16 0)
(-1 6.53736e-17 0)
(-1 -3.1497e-17 0)
(-1 -5.32582e-17 0)
(-1 -6.81012e-17 0)
(-1 1.24384e-18 0)
(-1 -4.0094e-17 0)
(-1 -1.3559e-16 0)
(-1 -1.45713e-16 0)
(-1 -3.1071e-17 0)
(-1 9.97278e-17 0)
(-1 1.31472e-16 0)
(-1 1.37263e-16 0)
(-1 8.21777e-17 0)
(-1 9.54344e-18 0)
(-1 -1.91306e-17 0)
(-1 3.32446e-18 0)
(-1 -3.76417e-14 0)
(-1 7.68223e-15 0)
(-1 -1.78519e-15 0)
(-1 3.52992e-16 0)
(-1 -1.88114e-16 0)
(-1 -1.36536e-16 0)
(-1 2.72274e-17 0)
(-1 6.54728e-17 0)
(-1 -3.91283e-17 0)
(-1 -6.3978e-17 0)
(-1 -4.12917e-17 0)
(-1 -1.19885e-16 0)
(-1 -6.8549e-17 0)
(-1 -1.1217e-16 0)
(-1 -6.14519e-17 0)
(-1 -1.19489e-16 0)
(-1 -1.26142e-16 0)
(-1 -5.78821e-17 0)
(-1 1.34098e-17 0)
(-1 2.74867e-17 0)
(-1 -1.27865e-14 0)
(-1 2.09606e-15 0)
(-1 -4.38524e-16 0)
(-1 7.62166e-17 0)
(-1 -7.41616e-17 0)
(-1 -9.69883e-17 0)
(-1 -7.19198e-18 0)
(-1 3.35186e-17 0)
(-1 -6.3907e-17 0)
(-1 -7.03778e-17 0)
(-1 -3.31398e-17 0)
(-1 -6.46755e-17 0)
(-1 -4.38108e-17 0)
(-1 -6.16673e-17 0)
(-1 -4.48548e-17 0)
(-1 -9.51618e-17 0)
(-1 -6.19506e-17 0)
(-1 -7.99879e-18 0)
(-1 1.55178e-18 0)
(-1 -7.96823e-18 0)
)
;

boundaryField
{
    movingWall
    {
        type            zeroGradient;
    }
    fixedWalls
    {
        type            zeroGradient;
    }
    frontAndBack
    {
        type            empty;
    }
}


// ************************************************************************* //
