/*--------------------------------*- C++ -*----------------------------------*\
| =========                 |                                                 |
| \\      /  F ield         | OpenFOAM: The Open Source CFD Toolbox           |
|  \\    /   O peration     | Version:  2506                                  |
|   \\  /    A nd           | Website:  www.openfoam.com                      |
|    \\/     M anipulation  |                                                 |
\*---------------------------------------------------------------------------*/
FoamFile
{
    version     2.0;
    format      ascii;
    arch        "LSB;label=32;scalar=64";
    class       volScalarField;
    location    "8.125";
    object      zeroGradient(epsilon);
}
// * * * * * * * * * * * * * * * * * * * * * * * * * * * * * * * * * * * * * //

dimensions      [0 2 -3 0 0 0 0];

internalField   nonuniform List<scalar> 
400
(
1.26235e-06
1.26234e-06
1.26234e-06
1.26234e-06
1.26234e-06
1.26234e-06
1.26234e-06
1.26234e-06
1.26234e-06
1.26234e-06
1.26234e-06
1.26234e-06
1.26234e-06
1.26234e-06
1.26234e-06
1.26234e-06
1.26234e-06
1.26234e-06
1.26234e-06
1.26234e-06
1.30092e-06
1.28539e-06
1.28671e-06
1.28725e-06
1.28833e-06
1.2889e-06
1.28998e-06
1.29057e-06
1.29165e-06
1.29225e-06
1.29333e-06
1.29395e-06
1.29503e-06
1.29567e-06
1.29676e-06
1.2974e-06
1.2985e-06
1.29914e-06
1.2997e-06
1.30058e-06
1.36203e-06
1.34523e-06
1.34669e-06
1.34728e-06
1.34847e-06
1.34909e-06
1.35026e-06
1.3509e-06
1.35207e-06
1.35273e-06
1.35389e-06
1.35456e-06
1.35573e-06
1.3564e-06
1.35758e-06
1.35825e-06
1.35944e-06
1.36012e-06
1.36072e-06
1.36165e-06
1.42629e-06
1.40843e-06
1.40998e-06
1.41061e-06
1.41187e-06
1.41253e-06
1.41378e-06
1.41446e-06
1.4157e-06
1.4164e-06
1.41764e-06
1.41834e-06
1.41959e-06
1.4203e-06
1.42155e-06
1.42227e-06
1.42353e-06
1.42425e-06
1.42489e-06
1.42588e-06
1.4803e-06
1.46152e-06
1.46314e-06
1.4638e-06
1.46513e-06
1.46582e-06
1.46713e-06
1.46785e-06
1.46915e-06
1.46989e-06
1.47119e-06
1.47194e-06
1.47324e-06
1.47399e-06
1.47531e-06
1.47606e-06
1.47739e-06
1.47815e-06
1.47882e-06
1.47986e-06
1.51956e-06
1.5001e-06
1.50178e-06
1.50247e-06
1.50384e-06
1.50456e-06
1.50592e-06
1.50666e-06
1.50801e-06
1.50877e-06
1.51012e-06
1.51089e-06
1.51225e-06
1.51303e-06
1.51439e-06
1.51517e-06
1.51654e-06
1.51733e-06
1.51802e-06
1.51911e-06
1.54561e-06
1.52569e-06
1.52741e-06
1.52812e-06
1.52952e-06
1.53026e-06
1.53165e-06
1.53241e-06
1.53379e-06
1.53457e-06
1.53595e-06
1.53674e-06
1.53812e-06
1.53892e-06
1.54031e-06
1.54111e-06
1.54252e-06
1.54332e-06
1.54403e-06
1.54514e-06
1.56218e-06
1.54197e-06
1.54372e-06
1.54443e-06
1.54586e-06
1.5466e-06
1.54801e-06
1.54878e-06
1.55018e-06
1.55097e-06
1.55237e-06
1.55318e-06
1.55458e-06
1.55539e-06
1.5568e-06
1.55762e-06
1.55904e-06
1.55986e-06
1.56058e-06
1.5617e-06
1.57287e-06
1.55248e-06
1.55424e-06
1.55495e-06
1.55639e-06
1.55714e-06
1.55857e-06
1.55935e-06
1.56076e-06
1.56156e-06
1.56297e-06
1.56378e-06
1.5652e-06
1.56602e-06
1.56744e-06
1.56826e-06
1.5697e-06
1.57053e-06
1.57125e-06
1.57239e-06
1.58032e-06
1.5598e-06
1.56157e-06
1.56229e-06
1.56374e-06
1.5645e-06
1.56593e-06
1.56671e-06
1.56814e-06
1.56894e-06
1.57036e-06
1.57118e-06
1.5726e-06
1.57343e-06
1.57486e-06
1.57569e-06
1.57713e-06
1.57796e-06
1.57869e-06
1.57984e-06
1.58623e-06
1.5656e-06
1.56738e-06
1.56811e-06
1.56956e-06
1.57032e-06
1.57176e-06
1.57255e-06
1.57398e-06
1.57479e-06
1.57622e-06
1.57703e-06
1.57847e-06
1.5793e-06
1.58074e-06
1.58157e-06
1.58302e-06
1.58386e-06
1.58459e-06
1.58574e-06
1.59159e-06
1.57086e-06
1.57265e-06
1.57338e-06
1.57484e-06
1.57561e-06
1.57705e-06
1.57784e-06
1.57928e-06
1.58009e-06
1.58153e-06
1.58235e-06
1.58379e-06
1.58462e-06
1.58607e-06
1.58691e-06
1.58837e-06
1.5892e-06
1.58994e-06
1.5911e-06
1.59697e-06
1.57616e-06
1.57795e-06
1.57869e-06
1.58015e-06
1.58092e-06
1.58237e-06
1.58317e-06
1.58461e-06
1.58542e-06
1.58687e-06
1.58769e-06
1.58914e-06
1.58997e-06
1.59143e-06
1.59227e-06
1.59374e-06
1.59458e-06
1.59532e-06
1.59648e-06
1.60271e-06
1.5818e-06
1.5836e-06
1.58434e-06
1.58581e-06
1.58658e-06
1.58804e-06
1.58884e-06
1.59029e-06
1.59111e-06
1.59256e-06
1.59339e-06
1.59484e-06
1.59568e-06
1.59714e-06
1.59798e-06
1.59946e-06
1.6003e-06
1.60105e-06
1.60221e-06
1.60895e-06
1.58792e-06
1.58974e-06
1.59048e-06
1.59196e-06
1.59273e-06
1.5942e-06
1.595e-06
1.59646e-06
1.59728e-06
1.59874e-06
1.59957e-06
1.60104e-06
1.60188e-06
1.60335e-06
1.6042e-06
1.60568e-06
1.60653e-06
1.60728e-06
1.60845e-06
1.61563e-06
1.59449e-06
1.59632e-06
1.59706e-06
1.59855e-06
1.59933e-06
1.60081e-06
1.60161e-06
1.60308e-06
1.6039e-06
1.60537e-06
1.60621e-06
1.60768e-06
1.60852e-06
1.61e-06
1.61085e-06
1.61235e-06
1.6132e-06
1.61395e-06
1.61513e-06
1.62246e-06
1.6012e-06
1.60304e-06
1.60379e-06
1.60528e-06
1.60607e-06
1.60755e-06
1.60836e-06
1.60984e-06
1.61067e-06
1.61214e-06
1.61298e-06
1.61446e-06
1.61531e-06
1.6168e-06
1.61766e-06
1.61915e-06
1.62001e-06
1.62077e-06
1.62195e-06
1.62881e-06
1.60745e-06
1.60929e-06
1.61004e-06
1.61155e-06
1.61234e-06
1.61383e-06
1.61464e-06
1.61612e-06
1.61696e-06
1.61844e-06
1.61929e-06
1.62077e-06
1.62163e-06
1.62312e-06
1.62398e-06
1.62549e-06
1.62635e-06
1.62711e-06
1.6283e-06
1.63381e-06
1.61277e-06
1.61455e-06
1.61528e-06
1.61674e-06
1.61751e-06
1.61896e-06
1.61977e-06
1.62121e-06
1.62204e-06
1.62349e-06
1.62434e-06
1.62579e-06
1.62666e-06
1.62813e-06
1.629e-06
1.63048e-06
1.63137e-06
1.63212e-06
1.63331e-06
1.6361e-06
1.6361e-06
1.6361e-06
1.6361e-06
1.6361e-06
1.6361e-06
1.6361e-06
1.6361e-06
1.6361e-06
1.6361e-06
1.6361e-06
1.6361e-06
1.6361e-06
1.6361e-06
1.6361e-06
1.6361e-06
1.6361e-06
1.6361e-06
1.6361e-06
1.6361e-06
)
;

boundaryField
{
    movingWall
    {
        type            zeroGradient;
    }
    fixedWalls
    {
        type            zeroGradient;
    }
    frontAndBack
    {
        type            empty;
    }
}


// ************************************************************************* //
