/*--------------------------------*- C++ -*----------------------------------*\
| =========                 |                                                 |
| \\      /  F ield         | OpenFOAM: The Open Source CFD Toolbox           |
|  \\    /   O peration     | Version:  2506                                  |
|   \\  /    A nd           | Website:  www.openfoam.com                      |
|    \\/     M anipulation  |                                                 |
\*---------------------------------------------------------------------------*/
FoamFile
{
    version     2.0;
    format      ascii;
    arch        "LSB;label=32;scalar=64";
    class       volScalarField;
    location    "2.875";
    object      divU;
}
// * * * * * * * * * * * * * * * * * * * * * * * * * * * * * * * * * * * * * //

dimensions      [0 0 -1 0 0 0 0];

internalField   nonuniform List<scalar> 
400
(
-4.32941e-05
5.46911e-05
-1.47502e-05
5.4703e-06
-1.6655e-06
5.60733e-07
-1.83477e-07
5.78179e-08
-1.98563e-08
6.12372e-09
-2.04608e-09
7.12261e-10
-1.64542e-10
1.25612e-10
3.02806e-11
4.82165e-11
2.65297e-11
2.25573e-11
-7.52742e-11
1.2406e-10
-3.80826e-05
4.52155e-05
-1.3463e-05
4.5901e-06
-1.57116e-06
5.0566e-07
-1.71424e-07
5.69612e-08
-1.81094e-08
6.49061e-09
-1.75517e-09
8.3048e-10
-9.50228e-11
1.62033e-10
5.04159e-11
5.26624e-11
2.84138e-11
3.71986e-11
-7.45844e-11
1.10643e-10
-6.45572e-05
9.2614e-05
-2.38652e-05
8.72473e-06
-2.45082e-06
8.3054e-07
-2.45913e-07
8.21355e-08
-2.38016e-08
8.52453e-09
-2.17071e-09
9.71124e-10
-1.41525e-10
1.5815e-10
3.67816e-11
4.62791e-11
1.3143e-11
2.62368e-11
-5.87275e-11
1.02294e-10
-6.13443e-05
5.95449e-05
-1.78197e-05
5.66603e-06
-1.80698e-06
6.10617e-07
-1.75689e-07
6.35759e-08
-1.73904e-08
6.63091e-09
-1.61252e-09
7.55546e-10
-1.03778e-10
1.26152e-10
3.24534e-11
2.48327e-11
4.19787e-12
3.76598e-11
-4.49777e-11
6.90366e-11
-4.64674e-05
5.90325e-05
-1.40661e-05
5.32657e-06
-1.34182e-06
4.38199e-07
-1.28993e-07
3.87619e-08
-1.13664e-08
3.66967e-09
-9.67864e-10
3.76691e-10
-5.63409e-11
7.11418e-11
2.80157e-11
1.58211e-11
-1.33053e-11
2.25802e-11
-1.94123e-11
5.04696e-11
5.66163e-05
-6.61446e-05
1.62405e-05
-6.06532e-06
1.56233e-06
-5.23682e-07
1.51151e-07
-4.83306e-08
1.3441e-08
-4.80431e-09
1.15534e-09
-4.78584e-10
1.14561e-10
-2.00875e-11
3.66909e-11
-1.92229e-11
-2.65915e-11
4.03975e-11
2.31672e-12
2.84603e-12
5.51684e-05
-7.54878e-05
2.09068e-05
-7.13644e-06
2.18496e-06
-7.33191e-07
2.16435e-07
-7.66868e-08
2.11118e-08
-8.10779e-09
2.01335e-09
-8.57172e-10
2.03717e-10
-6.62927e-11
3.80927e-11
-2.48143e-11
-4.82762e-11
1.38272e-11
3.14977e-11
-2.03017e-11
8.52603e-05
-8.0735e-05
2.3407e-05
-7.7223e-06
2.37836e-06
-7.93735e-07
2.34506e-07
-8.12518e-08
2.31362e-08
-8.36962e-09
2.28428e-09
-8.36593e-10
2.52704e-10
-5.38261e-11
4.28186e-11
-5.59884e-11
-6.43832e-11
4.04378e-11
5.55047e-11
-7.49726e-11
3.66362e-06
-5.28238e-05
1.08395e-05
-5.20436e-06
1.27238e-06
-4.76946e-07
1.51425e-07
-4.89293e-08
1.63602e-08
-5.23837e-09
1.91892e-09
-4.76761e-10
2.63248e-10
-1.9637e-11
3.71546e-11
-4.59083e-11
-8.49362e-11
-2.04024e-12
7.78354e-11
-9.48677e-11
6.91194e-05
-2.61135e-07
7.66491e-06
-4.87925e-07
1.1245e-06
-2.63067e-07
1.17569e-07
-4.01801e-08
1.56416e-08
-4.05504e-09
2.20007e-09
-2.96114e-10
3.17242e-10
6.92475e-12
4.26548e-11
-8.7006e-11
-1.10603e-10
2.31941e-11
9.22448e-11
-1.46503e-10
-6.43226e-06
-0.000116242
1.98418e-05
-1.09218e-05
1.93004e-06
-8.12871e-07
2.34311e-07
-5.97472e-08
2.44635e-08
-5.13145e-09
2.77699e-09
-3.05951e-10
3.63554e-10
-2.48405e-11
2.04034e-12
-9.78474e-11
-1.40918e-10
-4.667e-11
9.40536e-11
-1.51382e-10
7.23089e-05
8.8265e-05
-6.34732e-06
7.48395e-06
7.92e-08
2.5493e-07
1.60045e-08
-1.43225e-08
7.53632e-09
-2.10675e-09
2.0568e-09
-2.28686e-10
2.13782e-10
-1.1749e-10
-6.61673e-11
-1.82762e-10
-1.84596e-10
-2.5592e-11
9.25053e-11
-1.81848e-10
2.81084e-05
-0.000262788
4.7711e-05
-2.44171e-05
4.42868e-06
-1.83358e-06
4.87712e-07
-1.36628e-07
5.0761e-08
-1.16645e-08
4.56222e-09
-1.39112e-09
1.43526e-10
-3.78835e-10
-1.77507e-10
-2.24756e-10
-2.06872e-10
-1.04746e-10
7.0301e-11
-1.53415e-10
4.78532e-05
0.000210948
-2.50348e-05
1.81884e-05
-1.16532e-06
8.04179e-07
-9.20403e-08
9.71592e-09
2.51207e-09
-3.7455e-09
8.54068e-10
-1.52287e-09
-4.47664e-10
-6.08324e-10
-3.08039e-10
-3.16496e-10
-2.41556e-10
-7.85192e-11
5.80987e-11
-1.35959e-10
0.000267768
-0.000535268
0.000109954
-5.04063e-05
1.04429e-05
-4.04093e-06
1.10637e-06
-3.33113e-07
1.02428e-07
-3.37456e-08
6.82599e-09
-4.89623e-09
-3.75324e-10
-1.05812e-09
-3.73517e-10
-3.35579e-10
-2.12984e-10
-1.23898e-10
2.79593e-11
-6.07153e-11
-0.000163082
0.000279497
-3.36996e-05
2.29444e-05
-8.93632e-07
8.49369e-07
1.61114e-09
-4.49703e-08
7.58888e-09
-1.92291e-08
-1.24734e-09
-4.60597e-09
-1.09596e-09
-1.07622e-09
-3.82215e-10
-3.12237e-10
-1.68849e-10
-5.81449e-11
3.67627e-11
1.16281e-11
0.000725308
-0.00106971
0.000252362
-9.78847e-05
2.39858e-05
-8.17816e-06
2.27321e-06
-7.47498e-07
1.83705e-07
-7.59318e-08
1.26945e-08
-8.37488e-09
4.85286e-10
-1.00217e-09
-1.68195e-11
-9.42554e-11
2.13808e-11
-2.60704e-12
4.43241e-11
1.14573e-10
0.000319656
-0.000269058
0.000101858
-2.27178e-05
8.61639e-06
-3.06e-06
5.26174e-07
-3.4446e-07
4.62583e-08
-3.14145e-08
4.82404e-09
-2.67501e-09
6.52285e-10
-5.53145e-12
2.83263e-10
1.43214e-10
1.19892e-10
7.09199e-11
7.75918e-11
2.1226e-10
0.00055319
-0.000541533
0.000112847
-4.60711e-05
8.44473e-06
-2.78267e-06
7.44234e-07
-1.20624e-07
6.25361e-08
2.27079e-09
6.19355e-09
2.91801e-09
1.58663e-09
1.16691e-09
6.43947e-10
4.0574e-10
2.78954e-10
1.8205e-10
1.04389e-10
2.96719e-10
-0.00175701
0.00204927
-0.000537467
0.00018771
-5.15075e-05
1.73036e-05
-4.83352e-06
1.64836e-06
-4.41971e-07
1.65498e-07
-3.57363e-08
1.89052e-08
-1.53645e-09
2.9316e-09
5.57876e-10
7.16305e-10
4.25089e-10
2.62567e-10
8.08002e-11
3.32416e-10
)
;

boundaryField
{
    movingWall
    {
        type            extrapolatedCalculated;
        value           nonuniform List<scalar> 
20
(
-0.00175701
0.00204927
-0.000537467
0.00018771
-5.15075e-05
1.73036e-05
-4.83352e-06
1.64836e-06
-4.41971e-07
1.65498e-07
-3.57363e-08
1.89052e-08
-1.53645e-09
2.9316e-09
5.57876e-10
7.16305e-10
4.25089e-10
2.62567e-10
8.08002e-11
3.32416e-10
)
;
    }
    fixedWalls
    {
        type            extrapolatedCalculated;
        value           nonuniform List<scalar> 
60
(
-4.32941e-05
-3.80826e-05
-6.45572e-05
-6.13443e-05
-4.64674e-05
5.66163e-05
5.51684e-05
8.52603e-05
3.66362e-06
6.91194e-05
-6.43226e-06
7.23089e-05
2.81084e-05
4.78532e-05
0.000267768
-0.000163082
0.000725308
0.000319656
0.00055319
-0.00175701
1.2406e-10
1.10643e-10
1.02294e-10
6.90366e-11
5.04696e-11
2.84603e-12
-2.03017e-11
-7.49726e-11
-9.48677e-11
-1.46503e-10
-1.51382e-10
-1.81848e-10
-1.53415e-10
-1.35959e-10
-6.07153e-11
1.16281e-11
1.14573e-10
2.1226e-10
2.96719e-10
3.32416e-10
-4.32941e-05
5.46911e-05
-1.47502e-05
5.4703e-06
-1.6655e-06
5.60733e-07
-1.83477e-07
5.78179e-08
-1.98563e-08
6.12372e-09
-2.04608e-09
7.12261e-10
-1.64542e-10
1.25612e-10
3.02806e-11
4.82165e-11
2.65297e-11
2.25573e-11
-7.52742e-11
1.2406e-10
)
;
    }
    frontAndBack
    {
        type            empty;
    }
}


// ************************************************************************* //
