/*--------------------------------*- C++ -*----------------------------------*\
| =========                 |                                                 |
| \\      /  F ield         | OpenFOAM: The Open Source CFD Toolbox           |
|  \\    /   O peration     | Version:  2506                                  |
|   \\  /    A nd           | Website:  www.openfoam.com                      |
|    \\/     M anipulation  |                                                 |
\*---------------------------------------------------------------------------*/
FoamFile
{
    version     2.0;
    format      ascii;
    arch        "LSB;label=32;scalar=64";
    class       volScalarField;
    location    "2.875";
    object      enstrophyField;
}
// * * * * * * * * * * * * * * * * * * * * * * * * * * * * * * * * * * * * * //

dimensions      [0 0 -2 0 0 0 0];

internalField   nonuniform List<scalar> 
400
(
1.26381e-08
4.20786e-09
3.78882e-10
2.01146e-11
3.81206e-12
3.24722e-15
1.63464e-13
2.76628e-14
2.54208e-14
1.01862e-14
5.42505e-15
2.3788e-15
1.05965e-15
4.29527e-16
1.63765e-16
5.56599e-17
1.60958e-17
3.31067e-18
4.08526e-19
6.34813e-22
1.32125e-11
1.1391e-09
6.35877e-11
3.61614e-12
1.8532e-13
1.30316e-14
2.33666e-16
1.67054e-16
2.36655e-17
2.95143e-17
1.80193e-17
1.31465e-17
8.9587e-18
5.95469e-18
3.75399e-18
2.27851e-18
1.47108e-18
1.11185e-18
1.53056e-18
3.55026e-19
2.39684e-09
2.15164e-09
1.28963e-10
7.5972e-12
4.75751e-13
2.36408e-14
2.58598e-15
3.86972e-19
1.11416e-16
4.26147e-17
4.00481e-17
2.80258e-17
2.04185e-17
1.3792e-17
8.7864e-18
5.30755e-18
3.39313e-18
2.53221e-18
3.63827e-18
7.84469e-19
2.962e-09
1.37673e-09
7.93803e-11
4.71944e-12
2.53554e-13
1.99056e-14
2.85501e-16
3.78917e-16
7.77193e-17
9.4092e-17
6.28381e-17
4.79679e-17
3.36902e-17
2.25657e-17
1.39892e-17
8.16958e-18
5.0266e-18
3.6219e-18
5.55257e-18
1.04531e-18
6.84298e-09
3.39532e-11
2.90422e-13
1.43878e-14
3.51521e-15
2.54288e-15
2.06115e-17
3.1367e-16
1.26986e-16
1.23226e-16
8.49626e-17
6.3767e-17
4.41111e-17
2.88085e-17
1.71505e-17
9.45607e-18
5.44244e-18
3.66883e-18
6.32421e-18
9.09165e-19
1.94378e-08
2.93136e-09
1.80932e-10
1.1592e-11
6.97017e-13
5.65236e-14
1.53901e-15
8.89602e-16
8.97358e-17
1.5741e-16
9.32785e-17
7.19966e-17
4.79886e-17
3.02258e-17
1.68193e-17
8.38329e-18
4.2453e-18
2.49654e-18
5.44772e-18
4.22247e-19
2.70449e-10
7.82827e-10
3.59681e-11
1.56715e-12
8.48238e-14
1.4026e-15
8.46979e-16
1.64699e-16
1.91997e-16
1.30072e-16
9.68669e-17
6.76266e-17
4.4417e-17
2.60055e-17
1.29242e-17
5.27382e-18
1.97687e-18
7.67771e-19
3.19961e-18
8.59508e-21
7.76941e-11
5.34059e-10
1.41109e-11
2.67265e-13
2.60584e-17
7.11269e-18
6.24353e-16
1.2453e-16
1.82572e-16
1.07342e-16
8.22802e-17
5.41651e-17
3.3614e-17
1.74445e-17
6.8446e-18
1.63177e-18
1.36272e-19
3.66546e-20
7.77571e-19
5.04818e-19
1.46304e-08
3.79803e-09
1.77979e-10
8.08985e-12
3.97248e-13
1.31748e-14
1.76581e-15
4.42375e-17
1.44056e-16
7.72957e-17
5.66176e-17
3.4995e-17
1.91726e-17
7.69964e-18
1.46922e-18
1.28831e-20
1.00222e-18
2.49058e-18
1.26622e-19
3.00975e-18
1.43274e-08
5.65597e-09
2.50063e-10
1.08156e-11
4.20183e-13
2.02279e-14
1.68895e-16
1.97521e-16
5.83099e-17
4.68305e-17
2.86575e-17
1.54996e-17
6.22056e-18
9.29019e-19
2.95795e-19
3.26203e-18
6.94723e-18
1.03214e-17
3.4565e-18
8.57628e-18
3.17614e-08
1.52987e-08
7.35854e-10
3.45888e-11
1.62272e-12
6.70138e-14
3.9754e-15
2.2445e-17
5.50584e-17
1.29418e-17
8.18193e-18
2.46094e-18
8.03601e-20
1.2468e-18
6.35341e-18
1.3487e-17
1.94501e-17
2.47638e-17
1.24611e-17
1.7759e-17
7.15341e-08
3.26342e-08
1.60185e-09
7.77154e-11
3.70913e-12
1.80031e-13
7.64814e-15
4.95261e-16
5.08587e-18
3.26137e-18
2.82599e-20
8.87013e-19
4.32129e-18
1.0885e-17
2.07559e-17
3.08997e-17
3.81445e-17
4.51942e-17
2.74031e-17
3.01696e-17
1.02236e-07
6.88951e-08
3.50798e-09
1.76999e-10
8.83169e-12
4.36536e-13
2.0943e-14
1.06635e-15
2.81556e-17
1.24871e-17
6.01652e-18
1.25151e-17
1.88087e-17
2.89e-17
4.15783e-17
5.29281e-17
6.0113e-17
6.844e-17
4.62696e-17
4.39749e-17
2.42084e-07
1.38282e-07
7.32003e-09
3.83746e-10
2.01065e-11
1.03353e-12
5.62031e-14
2.362e-15
2.7517e-16
4.26575e-18
3.37115e-17
3.04037e-17
4.00019e-17
5.03156e-17
6.36478e-17
7.41768e-17
8.00158e-17
8.89583e-17
6.46526e-17
5.61191e-17
1.67686e-07
2.07519e-07
1.117e-08
5.94592e-10
3.11795e-11
1.64969e-12
7.94971e-14
5.19155e-15
5.84311e-17
1.01662e-16
3.96123e-17
5.46462e-17
5.81283e-17
6.81753e-17
7.96116e-17
8.79006e-17
9.16065e-17
1.00259e-16
7.65064e-17
6.26068e-17
7.94234e-07
3.84608e-07
2.26725e-08
1.33146e-09
7.8217e-11
4.49832e-12
2.72283e-13
1.31329e-14
1.42504e-15
8.24359e-19
9.29981e-17
5.754e-17
6.92899e-17
7.39747e-17
8.30723e-17
8.82415e-17
8.98634e-17
9.73149e-17
7.66608e-17
6.03582e-17
2.09814e-08
1.63278e-07
8.74325e-09
4.64941e-10
2.43242e-11
1.29757e-12
6.0807e-14
4.38809e-15
1.89637e-17
1.15888e-16
5.29875e-17
6.23892e-17
6.1653e-17
6.58891e-17
7.11063e-17
7.37549e-17
7.38678e-17
7.93834e-17
6.37322e-17
4.86957e-17
1.27311e-09
3.2971e-07
1.91599e-08
1.10684e-09
6.40999e-11
3.64446e-12
2.18648e-13
1.03762e-14
1.09301e-15
5.78233e-19
6.40338e-17
3.80013e-17
4.29845e-17
4.35195e-17
4.63418e-17
4.71011e-17
4.65956e-17
5.03638e-17
4.15558e-17
3.09193e-17
6.89764e-06
1.30036e-06
8.42005e-08
5.48303e-09
3.56552e-10
2.36702e-11
1.51749e-12
1.0919e-13
5.63903e-15
7.70928e-16
1.08062e-20
4.01487e-17
1.75424e-17
2.04619e-17
1.91401e-17
1.87214e-17
1.78322e-17
2.00596e-17
1.79692e-17
1.31234e-17
3.20642e-06
9.80978e-07
1.27881e-07
7.20972e-09
1.2442e-09
3.69673e-11
2.02334e-11
3.16039e-14
8.5818e-13
1.19922e-13
9.57073e-14
3.2892e-14
1.65949e-14
6.8258e-15
2.90233e-15
1.08498e-15
3.5659e-16
9.01157e-17
1.5312e-17
2.86563e-18
)
;

boundaryField
{
    movingWall
    {
        type            calculated;
        value           nonuniform List<scalar> 
20
(
5.80065e-05
6.11341e-06
8.57137e-07
5.15579e-08
8.46578e-09
3.18972e-10
1.2496e-10
1.26053e-14
4.41765e-12
4.57455e-13
4.31208e-13
1.36884e-13
7.07351e-14
2.8367e-14
1.19969e-14
4.39358e-15
1.40318e-15
3.22514e-16
4.15071e-17
4.47e-18
)
;
    }
    fixedWalls
    {
        type            calculated;
        value           nonuniform List<scalar> 
60
(
6.94422e-08
2.09135e-08
3.70855e-08
2.34761e-08
1.6049e-09
4.66844e-08
1.61391e-08
1.30958e-08
7.23177e-08
1.11295e-07
2.91266e-07
6.11999e-07
1.28173e-06
2.49707e-06
3.76328e-06
6.56188e-06
3.09659e-06
5.95382e-06
2.02916e-05
1.68191e-05
1.03321e-19
8.52764e-20
3.04261e-19
8.22956e-19
1.91728e-18
4.00424e-18
7.60288e-18
1.32566e-17
2.13496e-17
3.18935e-17
4.42861e-17
5.71365e-17
6.83217e-17
7.51945e-17
7.52732e-17
6.70305e-17
5.1008e-17
3.08181e-17
1.23754e-17
2.63783e-18
4.25488e-08
7.82945e-09
8.53906e-10
4.3078e-11
1.09954e-11
5.62531e-16
5.97078e-13
1.17106e-13
1.0123e-13
4.14888e-14
2.19511e-14
9.64891e-15
4.28499e-15
1.7306e-15
6.54827e-16
2.19471e-16
6.1321e-17
1.13986e-17
7.76731e-19
6.50254e-20
)
;
    }
    frontAndBack
    {
        type            empty;
    }
}


// ************************************************************************* //
