/*--------------------------------*- C++ -*----------------------------------*\
| =========                 |                                                 |
| \\      /  F ield         | OpenFOAM: The Open Source CFD Toolbox           |
|  \\    /   O peration     | Version:  2506                                  |
|   \\  /    A nd           | Website:  www.openfoam.com                      |
|    \\/     M anipulation  |                                                 |
\*---------------------------------------------------------------------------*/
FoamFile
{
    version     2.0;
    format      ascii;
    arch        "LSB;label=32;scalar=64";
    class       volScalarField;
    location    "2.875";
    object      flowTypeField;
}
// * * * * * * * * * * * * * * * * * * * * * * * * * * * * * * * * * * * * * //

dimensions      [0 0 0 0 0 0 0];

internalField   nonuniform List<scalar> 
400
(
-0.28894
-0.0498802
-0.141499
0.1065
-0.094396
0.856572
-0.0815307
0.184865
0.0219606
0.0868571
0.0648597
0.0864223
0.0902509
0.106485
0.122972
0.153272
0.206543
0.312642
0.466873
0.895673
0.911667
0.331359
0.420544
0.506704
0.591013
0.729858
0.796729
0.868789
0.897437
0.874785
0.855998
0.837255
0.809254
0.779732
0.743641
0.701714
0.638139
0.525296
0.251568
0.0156181
0.291319
0.402429
0.406749
0.57284
0.566666
0.755218
0.616566
0.994092
0.794914
0.855513
0.795484
0.774105
0.729057
0.686989
0.63643
0.578801
0.492527
0.354655
0.120859
0.0138906
-0.0254883
0.28362
0.349084
0.517691
0.577483
0.725748
0.865638
0.81315
0.844548
0.788704
0.758452
0.717231
0.672797
0.624419
0.572312
0.510973
0.418891
0.273263
0.0741594
0.0247993
0.262439
0.878758
0.961071
0.971035
0.958412
0.859867
0.977568
0.752873
0.835541
0.748408
0.737641
0.685331
0.647629
0.600537
0.557208
0.506369
0.426356
0.286929
0.07274
0.0556246
-0.118311
0.147679
0.19938
0.366051
0.490702
0.455378
0.821168
0.580368
0.863618
0.721204
0.734851
0.680253
0.651463
0.614819
0.588492
0.563795
0.519638
0.414704
0.11344
0.175936
0.644134
0.527746
0.603943
0.745456
0.795474
0.922492
0.836044
0.859496
0.784646
0.763249
0.732845
0.705789
0.679588
0.662666
0.659347
0.673635
0.687517
0.674683
0.235637
0.801507
0.80753
0.599207
0.739266
0.890952
0.995891
0.994769
0.799076
0.893265
0.762306
0.797183
0.757149
0.748774
0.732812
0.736837
0.763492
0.826723
0.920814
0.932516
0.541778
0.275298
-0.191997
0.0429378
-0.0369955
0.305655
0.31821
0.669522
0.520169
0.925093
0.794537
0.830306
0.806559
0.805503
0.806208
0.831543
0.894082
0.985238
0.825352
0.620573
0.810557
0.094715
-0.104394
-0.0982347
-0.322744
-0.164123
0.16502
0.338539
0.850297
0.840928
0.878305
0.87309
0.868994
0.875655
0.893448
0.943026
0.955386
0.808749
0.639879
0.431941
0.393645
0.0463205
0.0162243
0.163435
0.050333
0.356858
0.274897
0.560983
0.584918
0.956035
0.89042
0.938573
0.933914
0.952752
0.988271
0.939135
0.822578
0.672232
0.506334
0.315152
0.21611
0.0260567
-0.0665543
0.0258886
-0.219321
0.127162
-0.392909
-0.0593749
0.558733
0.798564
0.972841
0.971735
0.99643
0.973801
0.923222
0.841039
0.718075
0.568982
0.409675
0.236366
0.130995
0.0165474
0.0938703
0.193953
0.110496
0.366294
0.285318
0.531558
0.504194
0.833726
0.937941
0.954777
0.953846
0.913977
0.856906
0.767739
0.641505
0.494662
0.342514
0.187339
0.0873071
0.0111552
-0.087294
0.0462341
-0.141679
0.131733
-0.159792
-0.102895
0.460505
0.712581
0.870331
0.976057
0.907527
0.880816
0.812898
0.721719
0.594581
0.451497
0.304366
0.159046
0.0645311
0.00845417
0.237215
0.240216
0.197055
0.414595
0.354006
0.585013
0.504064
0.812158
0.934142
0.912546
0.909656
0.860481
0.796113
0.704601
0.581193
0.442244
0.29737
0.154499
0.0583823
0.00818778
-0.425689
-0.094676
-0.30696
-0.0994206
-0.302375
-0.420532
0.259677
0.671742
0.788575
0.992794
0.883074
0.872262
0.799721
0.718365
0.602746
0.471462
0.328054
0.176842
0.067164
0.0109966
0.819746
0.550781
0.574033
0.705978
0.708084
0.819912
0.800772
0.909103
0.977584
0.93392
0.922828
0.880801
0.829692
0.754774
0.656558
0.536678
0.398445
0.234037
0.0982616
0.0195067
0.934757
0.220288
0.328184
0.355451
0.517615
0.529865
0.740573
0.736877
0.906562
0.994487
0.931437
0.911515
0.87147
0.813022
0.737421
0.638825
0.517682
0.344932
0.165581
0.0390023
-0.229174
-0.318893
-0.216354
-0.0932551
0.218173
-0.000512846
0.566051
0.101439
0.83578
0.823578
0.999169
0.915751
0.92204
0.877466
0.834846
0.771224
0.687645
0.535592
0.317867
0.0960372
0.0759452
0.400066
0.249588
0.456975
0.239272
0.589201
0.0463123
0.886748
-0.218535
0.29043
-0.0230292
0.117548
0.0575116
0.098134
0.101218
0.135346
0.178438
0.252493
0.317322
0.238226
)
;

boundaryField
{
    movingWall
    {
        type            calculated;
        value           nonuniform List<scalar> 
20
(
0.0240318
0.0817072
-0.0550373
0.105132
-0.0462437
0.20422
-0.0967012
0.930594
-0.108031
0.127398
-0.0399228
0.0212843
-0.00647666
0.0107348
0.00907518
0.0205347
0.0348387
0.069705
0.127596
0.115715
)
;
    }
    fixedWalls
    {
        type            calculated;
        value           nonuniform List<scalar> 
60
(
0.00391134
0.340647
0.427727
0.321139
0.810729
0.194494
0.512704
0.556686
0.0354982
-0.158403
0.151844
0.00661624
0.190542
0.0426837
0.24771
-0.0765348
0.551047
0.22253
-0.271916
0.427742
0.358392
0.433221
0.22674
0.12
0.0640016
0.0391578
0.0254747
0.0184989
0.014131
0.0114226
0.00961725
0.00829876
0.00758715
0.0073184
0.00820312
0.0108706
0.0173171
0.03112
0.0720251
0.150693
0.184597
-0.0172683
-0.132453
0.0285909
-0.118541
0.944889
-0.0575454
0.0638395
-0.00954355
0.0133294
0.00317256
0.00871557
0.00782547
0.0110508
0.0143933
0.0233979
0.0445926
0.108495
0.331984
0.453936
)
;
    }
    frontAndBack
    {
        type            empty;
    }
}


// ************************************************************************* //
