/*--------------------------------*- C++ -*----------------------------------*\
| =========                 |                                                 |
| \\      /  F ield         | OpenFOAM: The Open Source CFD Toolbox           |
|  \\    /   O peration     | Version:  2506                                  |
|   \\  /    A nd           | Website:  www.openfoam.com                      |
|    \\/     M anipulation  |                                                 |
\*---------------------------------------------------------------------------*/
FoamFile
{
    version     2.0;
    format      ascii;
    arch        "LSB;label=32;scalar=64";
    class       volScalarField;
    location    "2.875";
    object      Lambda2Field;
}
// * * * * * * * * * * * * * * * * * * * * * * * * * * * * * * * * * * * * * //

dimensions      [0 0 -2 0 0 0 0];

internalField   nonuniform List<scalar> 
400
(
-3.39325e-09
0
0
0
0
4.2818e-14
-1.70709e-14
8.50666e-15
0
1.78226e-15
7.27595e-16
4.72545e-16
2.27876e-16
1.12869e-16
5.20875e-17
2.35086e-17
1.04586e-17
4.32794e-18
1.24967e-18
9.52732e-20
2.47622e-09
7.38978e-10
7.74693e-11
4.24518e-12
4.54677e-13
5.90586e-14
2.39811e-15
1.00799e-14
2.96789e-15
2.94732e-15
1.42529e-15
8.09207e-16
3.96797e-16
1.89371e-16
8.45381e-17
3.56567e-17
1.42412e-17
5.10598e-18
1.29406e-18
0
0
0
0
0
0
4.81324e-14
1.37731e-14
1.12295e-14
3.13241e-15
3.08184e-15
1.45924e-15
8.28683e-16
4.03466e-16
1.91826e-16
8.43714e-17
3.44435e-17
1.29459e-17
4.27339e-18
1.09166e-18
5.23297e-21
0
0
0
0
0
5.54231e-14
2.232e-14
1.08424e-14
4.85997e-15
3.08143e-15
1.59941e-15
8.48568e-16
4.22387e-16
1.98959e-16
8.74135e-17
3.48563e-17
1.24656e-17
3.72256e-18
9.44486e-19
3.64257e-20
5.13196e-09
1.95793e-09
2.48901e-10
1.48775e-11
2.84602e-12
6.48517e-14
7.53548e-14
5.28941e-15
7.64445e-15
2.83909e-15
1.81025e-15
8.79823e-16
4.59922e-16
2.16694e-16
9.74642e-17
3.92993e-17
1.40978e-17
4.13258e-18
1.067e-18
9.50378e-20
-1.86836e-09
0
0
0
1.08537e-12
0
6.31073e-14
4.51738e-15
8.15499e-15
2.91417e-15
1.94909e-15
9.57188e-16
5.14432e-16
2.50451e-16
1.16793e-16
4.96287e-17
1.90629e-17
5.98434e-18
1.5708e-18
2.17413e-19
6.00676e-10
3.43141e-10
2.54181e-11
2.66125e-12
4.68208e-13
3.1725e-14
2.87867e-14
8.64243e-15
6.45541e-15
3.38436e-15
1.96766e-15
1.09307e-15
5.86145e-16
3.02338e-16
1.4661e-16
6.65739e-17
2.76442e-17
9.75229e-18
2.53873e-18
3.37651e-19
1.32647e-09
5.2089e-10
2.78485e-11
3.74047e-12
1.20112e-13
7.79709e-14
4.82156e-15
1.21317e-14
4.46108e-15
3.88043e-15
2.06133e-15
1.26815e-15
6.86003e-16
3.70489e-16
1.86404e-16
8.9414e-17
3.96514e-17
1.48584e-17
3.90663e-18
4.7671e-19
-3.76867e-09
0
0
0
0
2.45426e-14
7.40306e-15
1.08166e-14
4.73884e-15
4.22637e-15
2.37535e-15
1.47661e-15
8.17178e-16
4.50888e-16
2.33674e-16
1.16025e-16
5.36168e-17
2.14621e-17
5.5325e-18
6.23412e-19
0
-9.159e-10
-8.57662e-11
-2.16782e-12
0
5.41421e-16
1.01968e-14
9.6937e-15
6.01978e-15
4.84619e-15
2.80363e-15
1.74469e-15
9.69992e-16
5.39646e-16
2.8326e-16
1.43205e-16
6.76204e-17
2.75056e-17
7.14715e-18
7.56702e-19
2.28215e-10
0
0
0
0
0
2.11176e-14
1.49833e-14
6.40396e-15
6.06735e-15
3.34577e-15
2.08704e-15
1.14245e-15
6.31518e-16
3.32009e-16
1.67506e-16
7.9549e-17
3.30107e-17
8.49057e-18
8.61184e-19
0
0
-3.87771e-10
0
-1.45575e-12
0
4.12812e-14
1.76814e-14
1.26143e-14
7.7506e-15
4.28363e-15
2.50549e-15
1.34572e-15
7.21472e-16
3.73792e-16
1.86883e-16
8.80526e-17
3.64954e-17
9.24657e-18
9.11513e-19
1.58838e-08
0
0
0
0
0
6.19031e-14
3.1261e-14
8.01172e-15
1.04017e-14
5.05715e-15
3.01678e-15
1.56894e-15
8.12808e-16
4.11966e-16
2.02408e-16
9.36626e-17
3.83276e-17
9.52978e-18
9.3082e-19
-2.19477e-08
0
-8.04878e-10
0
-2.21371e-12
0
1.3784e-13
3.87651e-14
2.80638e-14
1.41012e-14
7.09016e-15
3.69225e-15
1.8427e-15
9.24509e-16
4.56175e-16
2.19827e-16
9.93192e-17
3.97542e-17
9.43959e-18
9.35861e-19
3.27168e-08
0
0
0
2.25177e-12
3.63536e-13
1.88355e-13
9.33245e-14
1.19987e-14
2.00385e-14
8.39379e-15
4.62317e-15
2.21746e-15
1.08593e-15
5.24661e-16
2.48477e-16
1.09874e-16
4.31903e-17
1.00598e-17
1.03382e-18
-2.94277e-07
-2.89198e-09
-6.94762e-09
0
-2.49327e-11
-1.83801e-12
2.57008e-13
1.51571e-13
4.90956e-14
2.98531e-14
1.19628e-14
6.05536e-15
2.7541e-15
1.33749e-15
6.34282e-16
2.97293e-16
1.30266e-16
5.07101e-17
1.18049e-17
1.3508e-18
5.78052e-07
1.71687e-07
1.65425e-08
1.20172e-09
7.6656e-11
1.43522e-11
0
4.67425e-13
6.11789e-14
4.48287e-14
1.62089e-14
7.66884e-15
3.51993e-15
1.64135e-15
7.9141e-16
3.67959e-16
1.62529e-16
6.33215e-17
1.53046e-17
1.86232e-18
5.16529e-07
1.71337e-07
2.01208e-08
1.17735e-09
2.12367e-10
5.65293e-12
4.31833e-12
1.18238e-13
2.17985e-13
3.63704e-14
2.50051e-14
8.72048e-15
4.50912e-15
2.02395e-15
9.85138e-16
4.59086e-16
2.06071e-16
8.04692e-17
1.94896e-17
2.31343e-18
-1.97234e-06
-3.05655e-07
-1.62365e-08
0
1.81464e-10
0
8.0991e-12
0
3.28155e-13
4.03988e-14
3.04648e-14
1.01074e-14
5.22583e-15
2.34156e-15
1.15211e-15
5.4311e-16
2.47319e-16
9.795e-17
2.40666e-17
2.57867e-18
0
0
0
0
0
1.45627e-11
0
1.33517e-12
-2.29198e-13
7.76714e-14
0
7.68201e-15
2.04154e-15
1.49631e-15
7.07974e-16
3.7545e-16
1.8157e-16
7.86754e-17
2.04217e-17
1.74024e-18
)
;

boundaryField
{
    movingWall
    {
        type            calculated;
        value           nonuniform List<scalar> 
20
(
0
0
0
0
0
1.30499e-11
-9.65934e-12
2.5151e-12
-7.77282e-13
1.09948e-13
-2.75602e-14
4.79774e-15
-6.54881e-16
5.75991e-16
2.06937e-16
1.87083e-16
1.0473e-16
5.08974e-17
1.31731e-17
7.52473e-19
)
;
    }
    fixedWalls
    {
        type            calculated;
        value           nonuniform List<scalar> 
60
(
0
1.34431e-08
0
0
3.12816e-08
0
2.6322e-09
5.1767e-09
0
-2.53568e-08
0
0
0
0
0
0
2.75567e-06
2.87437e-06
-3.54771e-06
0
0
2.89294e-20
5.33095e-20
1.01749e-19
1.80629e-19
2.97091e-19
3.67655e-19
3.94726e-19
4.33467e-19
5.21888e-19
6.47711e-19
7.9992e-19
9.85402e-19
1.07873e-18
1.14847e-18
1.4073e-18
1.77364e-18
1.77422e-18
1.56603e-18
4.06239e-19
0
0
-1.60242e-10
0
-1.31856e-12
1.78064e-13
-6.14177e-14
1.14516e-14
-9.40576e-16
8.47047e-16
6.22964e-17
1.5927e-16
6.05353e-17
3.7985e-17
1.81022e-17
1.0227e-17
5.70306e-18
2.97211e-18
1.02929e-18
1.89885e-19
)
;
    }
    frontAndBack
    {
        type            empty;
    }
}


// ************************************************************************* //
