/*--------------------------------*- C++ -*----------------------------------*\
| =========                 |                                                 |
| \\      /  F ield         | OpenFOAM: The Open Source CFD Toolbox           |
|  \\    /   O peration     | Version:  2506                                  |
|   \\  /    A nd           | Website:  www.openfoam.com                      |
|    \\/     M anipulation  |                                                 |
\*---------------------------------------------------------------------------*/
FoamFile
{
    version     2.0;
    format      ascii;
    arch        "LSB;label=32;scalar=64";
    class       volVectorField;
    location    "2.875";
    object      LambVectorField;
}
// * * * * * * * * * * * * * * * * * * * * * * * * * * * * * * * * * * * * * //

dimensions      [0 1 -2 0 0 0 0];

internalField   nonuniform List<vector> 
400
(
(-1.04485e-10 -0.000158985 0)
(-1.51615e-11 9.17372e-05 -0)
(-1.06679e-12 -2.75275e-05 0)
(-6.36804e-14 6.34265e-06 -0)
(-5.36792e-15 -2.76118e-06 0)
(-7.18196e-17 8.05881e-08 -0)
(8.7197e-17 -5.71777e-07 -0)
(6.07963e-17 -2.35214e-07 -0)
(3.79267e-17 -2.25481e-07 -0)
(1.90534e-17 -1.42732e-07 -0)
(1.00896e-17 -1.04164e-07 -0)
(4.85234e-18 -6.89754e-08 -0)
(2.28927e-18 -4.60358e-08 -0)
(1.00799e-18 -2.93096e-08 -0)
(4.19948e-19 -1.80978e-08 -0)
(1.61431e-19 -1.05508e-08 -0)
(5.60382e-20 -5.67377e-09 -0)
(1.57358e-20 -2.5732e-09 -0)
(2.92032e-21 -9.03909e-10 -0)
(1.13869e-23 3.56318e-11 0)
(3.30054e-12 -5.14053e-06 -0)
(-8.13248e-12 -4.77306e-05 0)
(-4.73988e-13 1.12772e-05 -0)
(-2.60134e-14 -2.68929e-06 0)
(-2.42811e-15 6.08802e-07 -0)
(5.87822e-17 -1.61441e-07 -0)
(-2.32706e-17 2.16179e-08 -0)
(1.17616e-17 -1.82786e-08 -0)
(3.72785e-18 -6.87975e-09 -0)
(3.00311e-18 -7.68301e-09 -0)
(1.74333e-18 -6.00321e-09 -0)
(1.06717e-18 -5.12768e-09 -0)
(6.22136e-19 -4.2329e-09 -0)
(3.4889e-19 -3.451e-09 -0)
(1.8604e-19 -2.74007e-09 -0)
(9.50544e-20 -2.13472e-09 -0)
(4.91052e-20 -1.71527e-09 -0)
(2.61579e-20 -1.49121e-09 -0)
(1.64931e-20 -1.7496e-09 -0)
(-8.79012e-22 -8.42646e-10 0)
(-4.34314e-11 -6.92365e-05 0)
(-9.78725e-12 6.55994e-05 -0)
(-5.17283e-13 -1.60601e-05 0)
(-4.15133e-14 3.898e-06 -0)
(4.59017e-16 -9.75449e-07 -0)
(-5.10963e-16 2.17443e-07 -0)
(1.00352e-16 -7.19164e-08 -0)
(-1.02399e-18 8.79741e-10 -0)
(1.26834e-17 -1.49276e-08 -0)
(5.85594e-18 -9.23197e-09 -0)
(4.12551e-18 -8.94965e-09 -0)
(2.47475e-18 -7.48676e-09 -0)
(1.48043e-18 -6.39038e-09 -0)
(8.32652e-19 -5.25205e-09 -0)
(4.43046e-19 -4.19199e-09 -0)
(2.24148e-19 -3.25808e-09 -0)
(1.14406e-19 -2.60504e-09 -0)
(6.0332e-20 -2.25043e-09 -0)
(3.89123e-20 -2.69751e-09 -0)
(-2.46389e-21 -1.25257e-09 0)
(-3.38039e-11 7.69676e-05 -0)
(-4.1757e-12 -5.24734e-05 0)
(-3.13506e-13 1.26e-05 -0)
(6.5703e-15 -3.07228e-06 -0)
(-2.87266e-15 7.12115e-07 -0)
(5.60123e-16 -1.99528e-07 -0)
(-4.74111e-17 2.38956e-08 -0)
(4.26471e-17 -2.75288e-08 -0)
(1.38912e-17 -1.24675e-08 -0)
(1.13884e-17 -1.3718e-08 -0)
(6.6863e-18 -1.12105e-08 -0)
(4.17216e-18 -9.79468e-09 -0)
(2.42869e-18 -8.20855e-09 -0)
(1.34858e-18 -6.71798e-09 -0)
(6.99705e-19 -5.28946e-09 -0)
(3.43744e-19 -4.04217e-09 -0)
(1.70062e-19 -3.17068e-09 -0)
(8.72468e-20 -2.69143e-09 -0)
(5.8605e-20 -3.33244e-09 -0)
(-4.67607e-21 -1.4459e-09 0)
(6.06139e-11 0.000116987 0)
(-1.50015e-12 8.24054e-06 -0)
(-2.79773e-14 -7.62132e-07 0)
(3.57918e-15 -1.69634e-07 -0)
(-1.61619e-17 8.38476e-08 -0)
(3.33765e-16 -7.13146e-08 -0)
(1.27503e-17 -6.42052e-09 -0)
(4.80137e-17 -2.50468e-08 -0)
(2.01722e-17 -1.59365e-08 -0)
(1.51903e-17 -1.56988e-08 -0)
(8.88642e-18 -1.30355e-08 -0)
(5.48104e-18 -1.12931e-08 -0)
(3.12505e-18 -9.39267e-09 -0)
(1.69086e-18 -7.59059e-09 -0)
(8.43872e-19 -5.85671e-09 -0)
(3.94397e-19 -4.34881e-09 -0)
(1.84742e-19 -3.29922e-09 -0)
(9.03704e-20 -2.70881e-09 -0)
(6.49739e-20 -3.55646e-09 -0)
(-6.65117e-21 -1.34845e-09 0)
(-7.00091e-11 0.000197169 -0)
(-1.43398e-12 -7.65684e-05 0)
(-1.95641e-13 1.90227e-05 -0)
(4.8631e-14 -4.81498e-06 -0)
(-3.44707e-15 1.18069e-06 -0)
(1.4183e-15 -3.36225e-07 -0)
(-1.25524e-16 5.54799e-08 -0)
(8.37689e-17 -4.21806e-08 -0)
(1.80609e-17 -1.33967e-08 -0)
(1.80235e-17 -1.77432e-08 -0)
(9.73112e-18 -1.36586e-08 -0)
(6.00916e-18 -1.19997e-08 -0)
(3.30857e-18 -9.7968e-09 -0)
(1.71773e-18 -7.77506e-09 -0)
(8.03697e-19 -5.79987e-09 -0)
(3.43808e-19 -4.0947e-09 -0)
(1.45162e-19 -2.91386e-09 -0)
(6.42166e-20 -2.23452e-09 -0)
(5.31781e-20 -3.30082e-09 -0)
(-6.54864e-21 -9.18964e-10 0)
(-1.12013e-11 -2.32572e-05 0)
(-4.71513e-12 3.95684e-05 -0)
(-1.81494e-13 -8.48152e-06 0)
(-2.26529e-14 1.7704e-06 -0)
(9.53111e-16 -4.11883e-07 -0)
(-2.00985e-16 5.29641e-08 -0)
(9.39972e-17 -4.11577e-08 -0)
(3.41205e-17 -1.81493e-08 -0)
(2.60831e-17 -1.95958e-08 -0)
(1.5761e-17 -1.6129e-08 -0)
(9.5169e-18 -1.39188e-08 -0)
(5.45706e-18 -1.16298e-08 -0)
(2.90513e-18 -9.42518e-09 -0)
(1.3939e-18 -7.21187e-09 -0)
(5.81245e-19 -5.08413e-09 -0)
(2.07402e-19 -3.24771e-09 -0)
(6.84354e-20 -1.9884e-09 -0)
(2.26511e-20 -1.23917e-09 -0)
(2.74576e-20 -2.52967e-09 -0)
(-1.28714e-21 -1.31111e-10 0)
(-5.84675e-12 1.24655e-05 -0)
(-2.83095e-12 -3.26821e-05 0)
(-1.38494e-13 5.31242e-06 -0)
(-7.45275e-16 -7.31115e-07 0)
(-3.33304e-17 7.2192e-09 -0)
(9.21007e-18 -3.77165e-09 -0)
(8.07261e-17 -3.5337e-08 -0)
(2.56649e-17 -1.57816e-08 -0)
(2.33711e-17 -1.91087e-08 -0)
(1.2622e-17 -1.46521e-08 -0)
(7.63443e-18 -1.28281e-08 -0)
(4.07344e-18 -1.04082e-08 -0)
(1.99755e-18 -8.19927e-09 -0)
(8.24414e-19 -5.90669e-09 -0)
(2.63315e-19 -3.69989e-09 -0)
(5.49491e-20 -1.80653e-09 -0)
(5.17067e-21 -5.22058e-10 -0)
(-5.19038e-22 2.70757e-10 -0)
(3.19116e-21 -1.24705e-09 -0)
(1.30236e-20 1.00481e-09 0)
(-1.13962e-10 -0.000171058 0)
(-8.17967e-12 8.71554e-05 -0)
(-3.62597e-13 -1.88668e-05 0)
(-1.76557e-14 4.0224e-06 -0)
(2.53476e-15 -8.91346e-07 -0)
(-3.62175e-16 1.62325e-07 -0)
(1.16458e-16 -5.94274e-08 -0)
(1.2942e-17 -9.40611e-09 -0)
(1.72136e-17 -1.69739e-08 -0)
(8.50879e-18 -1.24335e-08 -0)
(4.76382e-18 -1.06412e-08 -0)
(2.25566e-18 -8.36601e-09 -0)
(8.97533e-19 -6.19235e-09 -0)
(2.39427e-19 -3.92419e-09 -0)
(1.73942e-20 -1.71419e-09 -0)
(2.48471e-21 1.60519e-10 0)
(3.26237e-20 1.41578e-09 0)
(4.39712e-20 2.23185e-09 0)
(4.29661e-21 5.03233e-10 0)
(4.03579e-20 2.45347e-09 0)
(-1.61902e-10 0.000169277 -0)
(-1.6578e-11 -0.000106358 0)
(-9.06291e-13 2.23635e-05 -0)
(-1.10292e-14 -4.65094e-06 0)
(-3.29368e-15 9.16715e-07 -0)
(3.93114e-16 -2.01136e-07 -0)
(-2.87699e-17 1.83791e-08 -0)
(2.1871e-17 -1.98757e-08 -0)
(7.81086e-18 -1.07991e-08 -0)
(4.32085e-18 -9.67786e-09 -0)
(1.85313e-18 -7.57067e-09 -0)
(5.91113e-19 -5.56769e-09 -0)
(5.25542e-20 -3.5272e-09 -0)
(-5.43808e-20 -1.3631e-09 0)
(5.10843e-20 7.69148e-10 0)
(1.83385e-19 2.55422e-09 0)
(2.34041e-19 3.72753e-09 0)
(2.07261e-19 4.54343e-09 0)
(5.74847e-20 2.62926e-09 0)
(8.32656e-20 4.14156e-09 0)
(-4.04032e-10 -0.000252037 0)
(-5.29669e-11 0.000174921 -0)
(-2.53225e-12 -3.83628e-05 0)
(-1.33829e-13 8.3173e-06 -0)
(4.64453e-16 -1.80151e-06 -0)
(-8.70277e-16 3.66098e-07 -0)
(1.02458e-16 -8.91673e-08 -0)
(-4.83712e-18 6.7e-09 -0)
(3.80661e-18 -1.04937e-08 -0)
(6.86023e-19 -5.0876e-09 -0)
(-4.28135e-20 -4.04523e-09 0)
(-2.15236e-19 -2.21853e-09 0)
(-5.71333e-20 -4.00899e-10 0)
(2.51385e-19 1.57911e-09 0)
(5.51766e-19 3.56466e-09 0)
(7.03632e-19 5.19365e-09 0)
(6.67498e-19 6.237e-09 0)
(5.21561e-19 7.03759e-09 0)
(1.82537e-19 4.99222e-09 0)
(1.41205e-19 5.9597e-09 0)
(-8.65925e-10 0.000378244 -0)
(-1.05516e-10 -0.000255477 0)
(-5.83278e-12 5.66013e-05 -0)
(-1.47669e-13 -1.24672e-05 0)
(-1.52127e-14 2.72365e-06 -0)
(6.13754e-16 -6.00052e-07 -0)
(-7.97133e-17 1.23678e-07 -0)
(6.00447e-18 -3.14726e-08 -0)
(3.79817e-19 3.18932e-09 0)
(-6.40838e-19 -2.55396e-09 0)
(7.64788e-20 2.37739e-10 0)
(4.45585e-19 1.33193e-09 0)
(9.44696e-19 2.93983e-09 0)
(1.35546e-18 4.66583e-09 0)
(1.60703e-18 6.44297e-09 0)
(1.58788e-18 7.86126e-09 0)
(1.33043e-18 8.73436e-09 0)
(9.79461e-19 9.50728e-09 0)
(3.81342e-19 7.40312e-09 0)
(2.09035e-19 7.76783e-09 0)
(-1.61872e-09 -0.000452184 0)
(-2.78286e-10 0.000371201 -0)
(-1.40654e-11 -8.37613e-05 0)
(-7.65489e-13 1.88148e-05 -0)
(-2.52697e-14 -4.20278e-06 0)
(-2.25055e-15 9.34383e-07 -0)
(-1.15094e-16 -2.04661e-07 0)
(2.17941e-17 4.61812e-08 0)
(-5.54101e-18 -7.50408e-09 0)
(3.62272e-18 4.99742e-09 0)
(2.35928e-18 3.46887e-09 0)
(2.98966e-18 5.00303e-09 0)
(3.13174e-18 6.13331e-09 0)
(3.2265e-18 7.60264e-09 0)
(3.12352e-18 9.11902e-09 0)
(2.73114e-18 1.02886e-08 0)
(2.13282e-18 1.09648e-08 0)
(1.51543e-18 1.16996e-08 0)
(6.26931e-19 9.61973e-09 0)
(2.75982e-19 9.37816e-09 0)
(-3.35e-09 0.000695824 -0)
(-4.97484e-10 -0.000525894 0)
(-2.7607e-11 0.000120996 -0)
(-1.02057e-12 -2.77036e-05 0)
(-5.54161e-14 6.34137e-06 -0)
(-2.87817e-15 -1.43773e-06 0)
(4.36458e-16 3.3527e-07 0)
(-1.06207e-16 -6.87313e-08 0)
(3.51015e-17 2.34593e-08 0)
(3.71118e-18 2.92087e-09 0)
(8.78679e-18 8.21115e-09 0)
(6.74546e-18 7.79791e-09 0)
(6.2041e-18 8.94448e-09 0)
(5.48763e-18 1.00315e-08 0)
(4.78222e-18 1.12825e-08 0)
(3.87864e-18 1.218e-08 0)
(2.88991e-18 1.26504e-08 0)
(2.00484e-18 1.33385e-08 0)
(8.63376e-19 1.13712e-08 0)
(3.27069e-19 1.05943e-08 0)
(-3.88209e-09 -0.000579109 0)
(-9.8756e-10 0.000644235 -0)
(-5.3343e-11 -0.000149465 0)
(-2.86539e-12 3.44846e-05 -0)
(-1.75174e-13 -7.89677e-06 0)
(-2.78362e-15 1.81642e-06 -0)
(-1.77402e-15 -3.98741e-07 0)
(2.61078e-16 1.01897e-07 0)
(-2.6328e-17 -1.08103e-08 0)
(2.62211e-17 1.42591e-08 0)
(1.28958e-17 8.90082e-09 0)
(1.15454e-17 1.04543e-08 0)
(9.10738e-18 1.07822e-08 0)
(7.4801e-18 1.16769e-08 0)
(6.06844e-18 1.26184e-08 0)
(4.6753e-18 1.3259e-08 0)
(3.36577e-18 1.35356e-08 0)
(2.29463e-18 1.41605e-08 0)
(1.01314e-18 1.23698e-08 0)
(3.45777e-19 1.11899e-08 0)
(-9.27623e-09 0.00126035 -0)
(-1.35335e-09 -0.000877049 0)
(-7.36556e-11 0.000212944 -0)
(-3.82824e-12 -5.16035e-05 0)
(-6.28405e-14 1.25074e-05 -0)
(-2.58966e-14 -2.99944e-06 0)
(4.1258e-15 7.37947e-07 0)
(-6.89205e-16 -1.62067e-07 0)
(1.75866e-16 5.33861e-08 0)
(3.02099e-18 1.28402e-09 0)
(2.37671e-17 1.3638e-08 0)
(1.35768e-17 1.07275e-08 0)
(1.09674e-17 1.1772e-08 0)
(8.31977e-18 1.21634e-08 0)
(6.45137e-18 1.28897e-08 0)
(4.77783e-18 1.32847e-08 0)
(3.35188e-18 1.34062e-08 0)
(2.25281e-18 1.3951e-08 0)
(1.01091e-18 1.23823e-08 0)
(3.20659e-19 1.09871e-08 0)
(1.68851e-09 0.000204845 0)
(-1.26083e-09 0.000571452 -0)
(-7.20416e-11 -0.000132236 0)
(-3.8226e-12 3.0494e-05 -0)
(-3.54159e-13 -6.97484e-06 0)
(3.673e-15 1.61094e-06 0)
(-3.73042e-15 -3.48732e-07 0)
(4.7254e-16 9.36813e-08 0)
(-2.48353e-17 -6.15852e-09 0)
(3.97687e-17 1.52242e-08 0)
(1.90666e-17 1.02944e-08 0)
(1.44184e-17 1.11704e-08 0)
(1.02113e-17 1.11043e-08 0)
(7.55278e-18 1.14795e-08 0)
(5.62001e-18 1.19253e-08 0)
(4.04731e-18 1.21454e-08 0)
(2.78357e-18 1.21547e-08 0)
(1.8522e-18 1.26003e-08 0)
(8.37475e-19 1.129e-08 0)
(2.51633e-19 9.86871e-09 0)
(-5.22788e-10 5.04599e-05 -0)
(-2.37246e-09 -0.000812047 0)
(-1.21501e-10 0.000195754 -0)
(-1.11876e-11 -4.70497e-05 0)
(-2.45344e-13 1.13225e-05 -0)
(-8.212e-14 -2.6998e-06 0)
(4.02491e-15 6.61284e-07 0)
(-1.03437e-15 -1.44057e-07 0)
(1.64871e-16 4.67549e-08 0)
(2.79373e-18 1.07539e-09 0)
(1.85489e-17 1.13167e-08 0)
(9.97768e-18 8.71795e-09 0)
(7.2696e-18 9.27195e-09 0)
(5.15997e-18 9.32947e-09 0)
(3.7434e-18 9.62724e-09 0)
(2.63925e-18 9.70578e-09 0)
(1.78771e-18 9.65356e-09 0)
(1.18662e-18 1.00363e-08 0)
(5.4337e-19 9.11656e-09 0)
(1.55896e-19 7.86375e-09 0)
(-3.16001e-08 -0.00371418 0)
(-1.67582e-09 0.00161267 -0)
(-1.20612e-10 -0.000410367 0)
(8.01239e-12 0.000104719 0)
(-2.50037e-13 -2.6704e-05 0)
(1.76207e-13 6.88044e-06 0)
(-6.87833e-15 -1.74212e-06 0)
(2.94476e-15 4.67312e-07 0)
(-2.46092e-16 -1.06198e-07 0)
(7.80862e-17 3.92665e-08 0)
(-1.62992e-19 -1.47012e-10 0)
(7.16675e-18 8.96088e-09 0)
(3.1076e-18 5.92325e-09 0)
(2.36473e-18 6.39717e-09 0)
(1.58114e-18 6.18711e-09 0)
(1.08717e-18 6.11905e-09 0)
(7.18319e-19 5.97197e-09 0)
(4.88624e-19 6.33396e-09 0)
(2.33911e-19 5.99487e-09 0)
(6.41028e-20 5.12317e-09 0)
(-2.47335e-08 0.00253242 -0)
(-4.72586e-09 -0.00140069 0)
(-4.04517e-10 0.000505731 -0)
(-3.45109e-11 -0.000120081 0)
(-3.29048e-12 4.98838e-05 -0)
(-2.46247e-13 -8.59853e-06 0)
(-2.51251e-14 6.36135e-06 -0)
(9.72368e-16 2.51412e-07 0)
(5.53292e-16 1.3101e-06 0)
(4.16457e-16 4.89739e-07 0)
(1.58296e-16 4.3751e-07 0)
(7.56158e-17 2.56484e-07 0)
(3.30668e-17 1.8218e-07 0)
(1.51946e-17 1.1684e-07 0)
(6.73878e-18 7.61884e-08 0)
(2.86368e-18 4.65829e-08 0)
(1.10978e-18 2.67054e-08 0)
(3.61369e-19 1.3425e-08 0)
(7.59959e-20 5.53389e-09 0)
(1.01838e-20 2.394e-09 0)
)
;

boundaryField
{
    movingWall
    {
        type            calculated;
        value           nonuniform List<vector> 
20
(
(0 0.0107709 -0)
(0 -0.00349669 -0)
(0 0.0013093 -0)
(0 -0.000321117 -0)
(0 0.000130121 -0)
(0 -2.52576e-05 -0)
(0 1.58089e-05 -0)
(0 -1.58779e-07 -0)
(0 2.97242e-06 -0)
(0 9.56509e-07 -0)
(0 9.28663e-07 -0)
(0 5.23229e-07 -0)
(0 3.76125e-07 -0)
(0 2.38189e-07 -0)
(0 1.54899e-07 -0)
(0 9.37399e-08 -0)
(0 5.29751e-08 -0)
(0 2.53974e-08 -0)
(0 9.11121e-09 -0)
(0 2.98998e-09 -0)
)
;
    }
    fixedWalls
    {
        type            calculated;
        value           nonuniform List<vector> 
60
(
(0 -0.000372672 -0)
(0 0.000204516 -0)
(0 -0.000272344 -0)
(0 0.000216684 -0)
(0 -5.66551e-05 -0)
(0 0.000305563 -0)
(0 -0.000179661 -0)
(0 0.000161838 -0)
(0 -0.00038031 -0)
(0 0.000471794 -0)
(0 -0.000763237 -0)
(0 0.00110634 -0)
(0 -0.00160108 -0)
(0 0.00223476 -0)
(0 -0.00274346 -0)
(0 0.00362267 -0)
(0 -0.00248861 -0)
(0 0.00345074 -0)
(0 -0.00637049 -0)
(0 0.00579985 -0)
(0 4.5458e-10 -0)
(0 4.1298e-10 -0)
(0 7.80078e-10 -0)
(0 1.28293e-09 -0)
(0 1.9582e-09 -0)
(0 2.82993e-09 -0)
(0 3.89946e-09 -0)
(0 5.14909e-09 -0)
(0 6.53447e-09 -0)
(0 7.98667e-09 -0)
(0 9.41128e-09 -0)
(0 1.06899e-08 -0)
(0 1.16895e-08 -0)
(0 1.22633e-08 -0)
(0 1.22697e-08 -0)
(0 1.15785e-08 -0)
(0 1.01003e-08 -0)
(0 7.85087e-09 -0)
(0 4.97501e-09 -0)
(0 2.29688e-09 -0)
(0 -0.000291715 -0)
(0 0.000125136 -0)
(0 -4.13257e-05 -0)
(0 9.28203e-06 -0)
(0 -4.68944e-06 -0)
(0 -3.35419e-08 -0)
(0 -1.09277e-06 -0)
(0 -4.83954e-07 -0)
(0 -4.49955e-07 -0)
(0 -2.88058e-07 -0)
(0 -2.09529e-07 -0)
(0 -1.38917e-07 -0)
(0 -9.25742e-08 -0)
(0 -5.88319e-08 -0)
(0 -3.61891e-08 -0)
(0 -2.09509e-08 -0)
(0 -1.10744e-08 -0)
(0 -4.77464e-09 -0)
(0 -1.24638e-09 -0)
(0 3.60626e-10 -0)
)
;
    }
    frontAndBack
    {
        type            empty;
    }
}


// ************************************************************************* //
