/*--------------------------------*- C++ -*----------------------------------*\
| =========                 |                                                 |
| \\      /  F ield         | OpenFOAM: The Open Source CFD Toolbox           |
|  \\    /   O peration     | Version:  2506                                  |
|   \\  /    A nd           | Website:  www.openfoam.com                      |
|    \\/     M anipulation  |                                                 |
\*---------------------------------------------------------------------------*/
FoamFile
{
    version     2.0;
    format      ascii;
    arch        "LSB;label=32;scalar=64";
    class       volScalarField;
    location    "2.875";
    object      QField;
}
// * * * * * * * * * * * * * * * * * * * * * * * * * * * * * * * * * * * * * //

dimensions      [0 0 -2 0 0 0 0];

internalField   nonuniform List<scalar> 
400
(
5.33317e-09
1.8764e-09
1.91072e-10
9.59546e-12
1.98783e-12
-1.13207e-13
3.96193e-14
-1.37215e-14
-9.70081e-16
-2.10336e-15
-8.02645e-16
-4.92379e-16
-2.31086e-16
-1.14571e-16
-5.23634e-17
-2.37971e-17
-1.05607e-17
-4.38131e-18
-1.33928e-18
-9.67896e-20
-2.36233e-09
-6.66298e-10
-6.86588e-11
-4.52511e-12
-7.52976e-14
-1.32818e-13
5.68181e-15
-1.52378e-14
-3.87403e-15
-3.27238e-15
-1.48612e-15
-8.30816e-16
-3.98517e-16
-1.91383e-16
-8.49539e-17
-3.59384e-17
-1.43379e-17
-5.18294e-18
-1.37199e-18
-5.32286e-21
-6.96771e-10
-5.6097e-10
-1.33134e-11
-9.64152e-12
1.31885e-13
-2.51044e-13
8.5469e-15
-1.86687e-14
-3.92815e-15
-3.45632e-15
-1.52096e-15
-8.49838e-16
-4.05553e-16
-1.93402e-16
-8.46082e-17
-3.4631e-17
-1.29787e-17
-4.3124e-18
-1.13613e-18
-1.71801e-20
2.02514e-09
2.51097e-10
2.79658e-11
-4.95393e-12
-7.82709e-15
-1.97716e-13
-1.19459e-14
-1.56297e-14
-5.2812e-15
-3.30244e-15
-1.6324e-15
-8.60264e-16
-4.23425e-16
-1.99769e-16
-8.75382e-17
-3.49106e-17
-1.24707e-17
-3.74724e-18
-9.59755e-19
-5.21328e-20
-5.52286e-09
-2.31713e-09
-2.69433e-10
-1.91181e-11
-2.99556e-12
-1.26685e-13
-7.17633e-14
-6.98243e-15
-7.78119e-15
-2.9072e-15
-1.82054e-15
-8.82641e-16
-4.60155e-16
-2.16837e-16
-9.74818e-17
-3.93008e-17
-1.41029e-17
-4.14038e-18
-1.06987e-18
-1.12136e-19
5.28041e-09
9.9573e-10
1.93191e-11
-2.72243e-12
-1.41678e-12
-3.64351e-14
-6.76109e-14
-4.69606e-15
-8.24273e-15
-2.90957e-15
-1.94932e-15
-9.57959e-16
-5.14699e-16
-2.5051e-16
-1.16901e-16
-4.96802e-17
-1.91203e-17
-6.04364e-18
-1.57252e-18
-2.18787e-19
-1.2294e-09
-8.55647e-10
-5.84202e-11
-1.05965e-11
-8.39076e-13
-1.61969e-13
-2.92616e-14
-1.14009e-14
-6.27381e-15
-3.50951e-15
-1.98723e-15
-1.10245e-15
-5.8802e-16
-3.02878e-16
-1.46866e-16
-6.67068e-17
-2.78369e-17
-9.78916e-18
-2.5804e-18
-3.49497e-19
2.47399e-10
-7.25252e-10
-3.29512e-11
-1.02319e-11
-2.46097e-13
-2.02077e-13
2.78001e-15
-1.62274e-14
-4.65906e-15
-4.12553e-15
-2.11003e-15
-1.28485e-15
-6.90065e-16
-3.71201e-16
-1.86848e-16
-8.98581e-17
-4.00213e-17
-1.50103e-17
-4.01118e-18
-5.26425e-19
3.96065e-09
1.0391e-09
7.09934e-11
3.28495e-12
2.65596e-13
-4.77916e-14
3.48586e-15
-1.33896e-14
-5.28881e-15
-4.44375e-15
-2.4389e-15
-1.49021e-15
-8.2313e-16
-4.5124e-16
-2.34184e-16
-1.16494e-16
-5.42342e-17
-2.14717e-17
-5.71655e-18
-6.91179e-19
4.84134e-09
9.21357e-10
1.2163e-10
2.73875e-12
4.33346e-13
3.29954e-15
-5.90473e-15
-1.23213e-14
-6.79397e-15
-5.06901e-15
-2.89962e-15
-1.75555e-15
-9.79011e-16
-5.39798e-16
-2.83962e-16
-1.44249e-16
-6.85493e-17
-2.76313e-17
-7.3972e-18
-8.62836e-19
-1.0442e-09
-3.89386e-10
1.14713e-10
-4.01232e-14
1.65665e-13
-5.97238e-14
4.58681e-16
-2.0418e-14
-7.86626e-15
-6.42521e-15
-3.49536e-15
-2.10052e-15
-1.15454e-15
-6.32141e-16
-3.32046e-16
-1.6878e-16
-8.08108e-17
-3.32786e-17
-8.76055e-18
-9.64208e-19
1.09848e-08
2.11464e-09
4.92748e-10
2.06134e-12
1.50541e-12
5.1544e-14
-4.37641e-14
-1.93913e-14
-1.33874e-14
-7.93172e-15
-4.41711e-15
-2.51694e-15
-1.35354e-15
-7.24587e-16
-3.75034e-16
-1.89258e-16
-8.96677e-17
-3.66373e-17
-9.50265e-18
-1.0158e-18
-2.29815e-08
-6.60482e-09
1.58366e-10
-2.47926e-11
-6.02098e-14
-4.33887e-13
3.30217e-14
-5.49801e-14
-1.24257e-14
-1.15911e-14
-5.37777e-15
-3.09058e-15
-1.57426e-15
-8.22527e-16
-4.15063e-16
-2.05026e-16
-9.52373e-17
-3.88228e-17
-9.69649e-18
-9.91593e-19
3.68958e-08
8.19319e-09
1.9047e-09
3.1299e-11
5.45606e-12
4.98208e-13
-1.73613e-13
-4.07015e-14
-2.84838e-14
-1.45185e-14
-7.15508e-15
-3.76943e-15
-1.85765e-15
-9.37661e-16
-4.60438e-16
-2.22586e-16
-1.00627e-16
-4.00095e-17
-9.53344e-18
-9.55886e-19
-1.0088e-07
-2.94506e-08
-7.83166e-10
-1.68271e-10
1.62728e-12
-3.04345e-12
2.86179e-13
-1.83509e-13
-1.99233e-14
-2.36904e-14
-8.80631e-15
-4.8193e-15
-2.22639e-15
-1.10042e-15
-5.27524e-16
-2.4986e-16
-1.10334e-16
-4.33288e-17
-1.0075e-17
-1.04038e-18
3.45974e-07
9.98333e-08
8.7165e-09
4.82254e-10
2.82865e-11
2.23561e-12
-2.58012e-13
-1.62732e-13
-5.02501e-14
-3.134e-14
-1.20131e-14
-6.14121e-15
-2.76231e-15
-1.33936e-15
-6.34505e-16
-2.97801e-16
-1.30569e-16
-5.07942e-17
-1.18333e-17
-1.35708e-18
-7.95669e-07
-3.19149e-07
-2.34772e-08
-2.80309e-09
-1.16579e-10
-3.21668e-11
1.30194e-13
-6.86269e-13
-5.69159e-14
-4.66899e-14
-1.63404e-14
-7.70012e-15
-3.5271e-15
-1.65347e-15
-7.91597e-16
-3.68777e-16
-1.62668e-16
-6.33327e-17
-1.54022e-17
-1.96956e-18
-5.08052e-07
-2.02741e-07
-2.26763e-08
-1.63596e-09
-2.4805e-10
-1.27918e-11
-4.67344e-12
-1.61549e-13
-2.2592e-13
-3.73425e-14
-2.53638e-14
-8.84466e-15
-4.53488e-15
-2.02411e-15
-9.91248e-16
-4.61314e-16
-2.07374e-16
-8.09647e-17
-1.97623e-17
-2.58907e-18
2.24553e-06
6.23409e-07
3.0993e-08
1.91689e-09
-2.18869e-10
3.89588e-12
-8.84603e-12
-2.01611e-14
-3.47566e-13
-4.07957e-14
-3.12558e-14
-1.03554e-14
-5.32143e-15
-2.39092e-15
-1.17145e-15
-5.51649e-16
-2.51325e-16
-9.96123e-17
-2.45455e-17
-3.04069e-18
9.73168e-07
-8.10388e-08
3.10749e-08
-4.72862e-09
2.9766e-10
-1.08431e-10
9.62094e-12
-3.01141e-12
3.50281e-13
-1.24656e-13
4.85044e-15
-9.75137e-15
-2.14767e-15
-1.6428e-15
-7.27165e-16
-3.9258e-16
-1.8845e-16
-8.14076e-17
-2.08479e-17
-2.29756e-18
)
;

boundaryField
{
    movingWall
    {
        type            calculated;
        value           nonuniform List<scalar> 
20
(
-8.7895e-07
-7.49301e-07
1.20705e-07
-7.58163e-09
1.18907e-09
-1.42187e-10
2.53871e-11
-4.24504e-12
8.34202e-13
-1.47109e-13
3.23954e-14
-6.02868e-15
9.10708e-16
-6.21929e-16
-2.21666e-16
-1.88086e-16
-1.04956e-16
-5.1947e-17
-1.39079e-17
-1.27567e-18
)
;
    }
    fixedWalls
    {
        type            calculated;
        value           nonuniform List<scalar> 
60
(
2.84951e-08
-1.2846e-08
-3.78817e-09
1.02862e-08
-3.36314e-08
2.20585e-08
-6.678e-09
2.03064e-09
1.74989e-08
2.63293e-08
-4.42761e-09
6.16113e-08
-1.06884e-07
2.05154e-07
-5.0019e-07
1.76764e-06
-4.26577e-06
-2.82758e-06
1.02502e-05
6.12013e-06
-4.70471e-20
-1.09732e-19
-1.44373e-19
-2.00076e-19
-2.59563e-19
-3.36432e-19
-4.05172e-19
-4.88357e-19
-5.6092e-19
-6.46032e-19
-7.26243e-19
-8.07795e-19
-9.03526e-19
-1.01093e-18
-1.20308e-18
-1.48038e-18
-1.82754e-18
-2.01754e-18
-2.00279e-18
-9.8439e-19
1.51279e-10
3.32446e-10
1.76968e-10
-1.49889e-12
2.31711e-12
-2.95626e-13
6.88343e-14
-1.60651e-14
2.02594e-15
-1.12279e-15
-1.38039e-16
-1.71074e-16
-6.80519e-17
-3.91052e-17
-1.93948e-17
-1.07644e-17
-5.98864e-18
-3.11034e-18
-1.15051e-18
-1.91298e-19
)
;
    }
    frontAndBack
    {
        type            empty;
    }
}


// ************************************************************************* //
