/*--------------------------------*- C++ -*----------------------------------*\
| =========                 |                                                 |
| \\      /  F ield         | OpenFOAM: The Open Source CFD Toolbox           |
|  \\    /   O peration     | Version:  2506                                  |
|   \\  /    A nd           | Website:  www.openfoam.com                      |
|    \\/     M anipulation  |                                                 |
\*---------------------------------------------------------------------------*/
FoamFile
{
    version     2.0;
    format      ascii;
    arch        "LSB;label=32;scalar=64";
    class       volVectorField;
    location    "2.875";
    object      vorticityField;
}
// * * * * * * * * * * * * * * * * * * * * * * * * * * * * * * * * * * * * * //

dimensions      [0 0 -1 0 0 0 0];

internalField   nonuniform List<vector> 
400
(
(0 -0 0.000158985)
(0 -0 -9.17372e-05)
(0 -0 2.75275e-05)
(0 -0 -6.34265e-06)
(0 -0 2.76118e-06)
(0 -0 -8.05881e-08)
(0 -0 5.71777e-07)
(0 -0 2.35214e-07)
(0 -0 2.25481e-07)
(0 -0 1.42732e-07)
(0 -0 1.04164e-07)
(0 -0 6.89754e-08)
(0 -0 4.60358e-08)
(0 -0 2.93096e-08)
(0 -0 1.80978e-08)
(0 -0 1.05508e-08)
(0 -0 5.67377e-09)
(0 -0 2.5732e-09)
(0 -0 9.03909e-10)
(0 -0 -3.56318e-11)
(0 -0 5.14052e-06)
(0 -0 4.77306e-05)
(0 -0 -1.12772e-05)
(0 -0 2.68929e-06)
(0 -0 -6.08802e-07)
(0 -0 1.61441e-07)
(0 -0 -2.16179e-08)
(0 -0 1.82786e-08)
(0 -0 6.87975e-09)
(0 -0 7.68301e-09)
(0 -0 6.00321e-09)
(0 -0 5.12768e-09)
(0 -0 4.2329e-09)
(0 -0 3.451e-09)
(0 -0 2.74007e-09)
(0 -0 2.13472e-09)
(0 -0 1.71527e-09)
(0 -0 1.49121e-09)
(0 -0 1.7496e-09)
(0 -0 8.42646e-10)
(0 -0 6.92364e-05)
(0 -0 -6.55994e-05)
(0 -0 1.60601e-05)
(0 -0 -3.898e-06)
(0 -0 9.75449e-07)
(0 -0 -2.17443e-07)
(0 -0 7.19164e-08)
(0 -0 -8.79741e-10)
(0 -0 1.49276e-08)
(0 -0 9.23197e-09)
(0 -0 8.94965e-09)
(0 -0 7.48676e-09)
(0 -0 6.39038e-09)
(0 -0 5.25205e-09)
(0 -0 4.19199e-09)
(0 -0 3.25808e-09)
(0 -0 2.60504e-09)
(0 -0 2.25043e-09)
(0 -0 2.69751e-09)
(0 -0 1.25257e-09)
(0 -0 -7.69676e-05)
(0 -0 5.24734e-05)
(0 -0 -1.26e-05)
(0 -0 3.07228e-06)
(0 -0 -7.12115e-07)
(0 -0 1.99528e-07)
(0 -0 -2.38956e-08)
(0 -0 2.75288e-08)
(0 -0 1.24675e-08)
(0 -0 1.3718e-08)
(0 -0 1.12105e-08)
(0 -0 9.79468e-09)
(0 -0 8.20855e-09)
(0 -0 6.71798e-09)
(0 -0 5.28946e-09)
(0 -0 4.04217e-09)
(0 -0 3.17068e-09)
(0 -0 2.69143e-09)
(0 -0 3.33244e-09)
(0 -0 1.4459e-09)
(0 -0 -0.000116987)
(0 -0 -8.24054e-06)
(0 -0 7.62132e-07)
(0 -0 1.69634e-07)
(0 -0 -8.38476e-08)
(0 -0 7.13146e-08)
(0 -0 6.42052e-09)
(0 -0 2.50468e-08)
(0 -0 1.59365e-08)
(0 -0 1.56988e-08)
(0 -0 1.30355e-08)
(0 -0 1.12931e-08)
(0 -0 9.39267e-09)
(0 -0 7.59059e-09)
(0 -0 5.85671e-09)
(0 -0 4.34881e-09)
(0 -0 3.29922e-09)
(0 -0 2.70881e-09)
(0 -0 3.55646e-09)
(0 -0 1.34845e-09)
(0 -0 -0.000197169)
(0 -0 7.65684e-05)
(0 -0 -1.90227e-05)
(0 -0 4.81498e-06)
(0 -0 -1.18069e-06)
(0 -0 3.36225e-07)
(0 -0 -5.54799e-08)
(0 -0 4.21806e-08)
(0 -0 1.33967e-08)
(0 -0 1.77432e-08)
(0 -0 1.36586e-08)
(0 -0 1.19997e-08)
(0 -0 9.7968e-09)
(0 -0 7.77506e-09)
(0 -0 5.79987e-09)
(0 -0 4.0947e-09)
(0 -0 2.91386e-09)
(0 -0 2.23452e-09)
(0 -0 3.30082e-09)
(0 -0 9.18964e-10)
(0 -0 2.32572e-05)
(0 -0 -3.95684e-05)
(0 -0 8.48153e-06)
(0 -0 -1.7704e-06)
(0 -0 4.11883e-07)
(0 -0 -5.29641e-08)
(0 -0 4.11577e-08)
(0 -0 1.81493e-08)
(0 -0 1.95958e-08)
(0 -0 1.6129e-08)
(0 -0 1.39188e-08)
(0 -0 1.16298e-08)
(0 -0 9.42518e-09)
(0 -0 7.21187e-09)
(0 -0 5.08413e-09)
(0 -0 3.24771e-09)
(0 -0 1.9884e-09)
(0 -0 1.23917e-09)
(0 -0 2.52967e-09)
(0 -0 1.31111e-10)
(0 -0 -1.24655e-05)
(0 -0 3.26821e-05)
(0 -0 -5.31242e-06)
(0 -0 7.31115e-07)
(0 -0 -7.2192e-09)
(0 -0 3.77165e-09)
(0 -0 3.5337e-08)
(0 -0 1.57816e-08)
(0 -0 1.91087e-08)
(0 -0 1.46521e-08)
(0 -0 1.28281e-08)
(0 -0 1.04082e-08)
(0 -0 8.19927e-09)
(0 -0 5.90669e-09)
(0 -0 3.69989e-09)
(0 -0 1.80653e-09)
(0 -0 5.22058e-10)
(0 -0 -2.70757e-10)
(0 -0 1.24705e-09)
(0 -0 -1.00481e-09)
(0 -0 0.000171058)
(0 -0 -8.71554e-05)
(0 -0 1.88668e-05)
(0 -0 -4.0224e-06)
(0 -0 8.91346e-07)
(0 -0 -1.62325e-07)
(0 -0 5.94274e-08)
(0 -0 9.40611e-09)
(0 -0 1.69739e-08)
(0 -0 1.24335e-08)
(0 -0 1.06412e-08)
(0 -0 8.36601e-09)
(0 -0 6.19235e-09)
(0 -0 3.92419e-09)
(0 -0 1.71419e-09)
(0 -0 -1.60519e-10)
(0 -0 -1.41578e-09)
(0 -0 -2.23185e-09)
(0 -0 -5.03233e-10)
(0 -0 -2.45347e-09)
(0 -0 -0.000169277)
(0 -0 0.000106358)
(0 -0 -2.23635e-05)
(0 -0 4.65094e-06)
(0 -0 -9.16715e-07)
(0 -0 2.01136e-07)
(0 -0 -1.83791e-08)
(0 -0 1.98757e-08)
(0 -0 1.07991e-08)
(0 -0 9.67786e-09)
(0 -0 7.57067e-09)
(0 -0 5.56769e-09)
(0 -0 3.5272e-09)
(0 -0 1.3631e-09)
(0 -0 -7.69148e-10)
(0 -0 -2.55422e-09)
(0 -0 -3.72753e-09)
(0 -0 -4.54343e-09)
(0 -0 -2.62926e-09)
(0 -0 -4.14156e-09)
(0 -0 0.000252037)
(0 -0 -0.000174921)
(0 -0 3.83628e-05)
(0 -0 -8.3173e-06)
(0 -0 1.80151e-06)
(0 -0 -3.66098e-07)
(0 -0 8.91673e-08)
(0 -0 -6.7e-09)
(0 -0 1.04937e-08)
(0 -0 5.0876e-09)
(0 -0 4.04523e-09)
(0 -0 2.21853e-09)
(0 -0 4.00899e-10)
(0 -0 -1.57911e-09)
(0 -0 -3.56466e-09)
(0 -0 -5.19365e-09)
(0 -0 -6.237e-09)
(0 -0 -7.03759e-09)
(0 -0 -4.99222e-09)
(0 -0 -5.9597e-09)
(0 -0 -0.000378244)
(0 -0 0.000255477)
(0 -0 -5.66013e-05)
(0 -0 1.24672e-05)
(0 -0 -2.72365e-06)
(0 -0 6.00052e-07)
(0 -0 -1.23678e-07)
(0 -0 3.14726e-08)
(0 -0 -3.18932e-09)
(0 -0 2.55396e-09)
(0 -0 -2.37739e-10)
(0 -0 -1.33193e-09)
(0 -0 -2.93983e-09)
(0 -0 -4.66583e-09)
(0 -0 -6.44297e-09)
(0 -0 -7.86126e-09)
(0 -0 -8.73436e-09)
(0 -0 -9.50728e-09)
(0 -0 -7.40312e-09)
(0 -0 -7.76783e-09)
(0 -0 0.000452185)
(0 -0 -0.000371201)
(0 -0 8.37613e-05)
(0 -0 -1.88148e-05)
(0 -0 4.20278e-06)
(0 -0 -9.34383e-07)
(0 -0 2.04661e-07)
(0 -0 -4.61812e-08)
(0 -0 7.50408e-09)
(0 -0 -4.99742e-09)
(0 -0 -3.46887e-09)
(0 -0 -5.00303e-09)
(0 -0 -6.13331e-09)
(0 -0 -7.60264e-09)
(0 -0 -9.11902e-09)
(0 -0 -1.02886e-08)
(0 -0 -1.09648e-08)
(0 -0 -1.16996e-08)
(0 -0 -9.61973e-09)
(0 -0 -9.37816e-09)
(0 -0 -0.000695822)
(0 -0 0.000525894)
(0 -0 -0.000120996)
(0 -0 2.77036e-05)
(0 -0 -6.34137e-06)
(0 -0 1.43773e-06)
(0 -0 -3.3527e-07)
(0 -0 6.87313e-08)
(0 -0 -2.34593e-08)
(0 -0 -2.92087e-09)
(0 -0 -8.21115e-09)
(0 -0 -7.79791e-09)
(0 -0 -8.94448e-09)
(0 -0 -1.00315e-08)
(0 -0 -1.12825e-08)
(0 -0 -1.218e-08)
(0 -0 -1.26504e-08)
(0 -0 -1.33385e-08)
(0 -0 -1.13712e-08)
(0 -0 -1.05943e-08)
(0 -0 0.000579112)
(0 -0 -0.000644234)
(0 -0 0.000149465)
(0 -0 -3.44846e-05)
(0 -0 7.89677e-06)
(0 -0 -1.81642e-06)
(0 -0 3.98741e-07)
(0 -0 -1.01897e-07)
(0 -0 1.08103e-08)
(0 -0 -1.42591e-08)
(0 -0 -8.90082e-09)
(0 -0 -1.04543e-08)
(0 -0 -1.07822e-08)
(0 -0 -1.16769e-08)
(0 -0 -1.26184e-08)
(0 -0 -1.3259e-08)
(0 -0 -1.35356e-08)
(0 -0 -1.41605e-08)
(0 -0 -1.23698e-08)
(0 -0 -1.11899e-08)
(0 -0 -0.00126034)
(0 -0 0.00087705)
(0 -0 -0.000212944)
(0 -0 5.16035e-05)
(0 -0 -1.25074e-05)
(0 -0 2.99944e-06)
(0 -0 -7.37947e-07)
(0 -0 1.62067e-07)
(0 -0 -5.33861e-08)
(0 -0 -1.28402e-09)
(0 -0 -1.3638e-08)
(0 -0 -1.07275e-08)
(0 -0 -1.1772e-08)
(0 -0 -1.21634e-08)
(0 -0 -1.28897e-08)
(0 -0 -1.32847e-08)
(0 -0 -1.34062e-08)
(0 -0 -1.3951e-08)
(0 -0 -1.23823e-08)
(0 -0 -1.09871e-08)
(0 -0 -0.000204848)
(0 -0 -0.000571451)
(0 -0 0.000132237)
(0 -0 -3.0494e-05)
(0 -0 6.97484e-06)
(0 -0 -1.61094e-06)
(0 -0 3.48732e-07)
(0 -0 -9.36813e-08)
(0 -0 6.15852e-09)
(0 -0 -1.52242e-08)
(0 -0 -1.02944e-08)
(0 -0 -1.11704e-08)
(0 -0 -1.11043e-08)
(0 -0 -1.14795e-08)
(0 -0 -1.19253e-08)
(0 -0 -1.21454e-08)
(0 -0 -1.21547e-08)
(0 -0 -1.26003e-08)
(0 -0 -1.129e-08)
(0 -0 -9.86871e-09)
(0 -0 -5.04601e-05)
(0 -0 0.000812046)
(0 -0 -0.000195754)
(0 -0 4.70497e-05)
(0 -0 -1.13225e-05)
(0 -0 2.6998e-06)
(0 -0 -6.61284e-07)
(0 -0 1.44057e-07)
(0 -0 -4.67549e-08)
(0 -0 -1.07539e-09)
(0 -0 -1.13167e-08)
(0 -0 -8.71795e-09)
(0 -0 -9.27195e-09)
(0 -0 -9.32947e-09)
(0 -0 -9.62724e-09)
(0 -0 -9.70578e-09)
(0 -0 -9.65356e-09)
(0 -0 -1.00363e-08)
(0 -0 -9.11656e-09)
(0 -0 -7.86375e-09)
(0 -0 0.0037142)
(0 -0 -0.00161267)
(0 -0 0.000410367)
(0 -0 -0.000104719)
(0 -0 2.6704e-05)
(0 -0 -6.88044e-06)
(0 -0 1.74212e-06)
(0 -0 -4.67312e-07)
(0 -0 1.06198e-07)
(0 -0 -3.92665e-08)
(0 -0 1.47012e-10)
(0 -0 -8.96088e-09)
(0 -0 -5.92325e-09)
(0 -0 -6.39717e-09)
(0 -0 -6.18711e-09)
(0 -0 -6.11905e-09)
(0 -0 -5.97197e-09)
(0 -0 -6.33396e-09)
(0 -0 -5.99487e-09)
(0 -0 -5.12317e-09)
(0 -0 -0.00253236)
(0 -0 0.0014007)
(0 -0 -0.00050573)
(0 -0 0.000120081)
(0 -0 -4.98838e-05)
(0 -0 8.59853e-06)
(0 -0 -6.36135e-06)
(0 -0 -2.51412e-07)
(0 -0 -1.3101e-06)
(0 -0 -4.89739e-07)
(0 -0 -4.3751e-07)
(0 -0 -2.56484e-07)
(0 -0 -1.8218e-07)
(0 -0 -1.1684e-07)
(0 -0 -7.61884e-08)
(0 -0 -4.65829e-08)
(0 -0 -2.67054e-08)
(0 -0 -1.3425e-08)
(0 -0 -5.53389e-09)
(0 -0 -2.394e-09)
)
;

boundaryField
{
    movingWall
    {
        type            calculated;
        value           nonuniform List<vector> 
20
(
(0 -0 -0.0107709)
(0 -0 0.00349669)
(0 -0 -0.0013093)
(0 -0 0.000321117)
(0 -0 -0.000130121)
(0 -0 2.52576e-05)
(0 -0 -1.58089e-05)
(0 -0 1.58779e-07)
(0 -0 -2.97242e-06)
(0 -0 -9.56509e-07)
(0 -0 -9.28663e-07)
(0 -0 -5.23229e-07)
(0 -0 -3.76125e-07)
(0 -0 -2.38189e-07)
(0 -0 -1.54899e-07)
(0 -0 -9.37399e-08)
(0 -0 -5.29751e-08)
(0 -0 -2.53974e-08)
(0 -0 -9.11121e-09)
(0 -0 -2.98998e-09)
)
;
    }
    fixedWalls
    {
        type            calculated;
        value           nonuniform List<vector> 
60
(
(0 -0 0.000372672)
(0 -0 -0.000204516)
(0 -0 0.000272344)
(0 -0 -0.000216684)
(0 -0 5.66551e-05)
(0 -0 -0.000305563)
(0 -0 0.000179661)
(0 -0 -0.000161838)
(0 -0 0.00038031)
(0 -0 -0.000471794)
(0 -0 0.000763237)
(0 -0 -0.00110634)
(0 -0 0.00160108)
(0 -0 -0.00223476)
(0 -0 0.00274346)
(0 -0 -0.00362267)
(0 -0 0.00248861)
(0 -0 -0.00345074)
(0 -0 0.00637049)
(0 -0 -0.00579985)
(0 -0 -4.5458e-10)
(0 -0 -4.1298e-10)
(0 -0 -7.80078e-10)
(0 -0 -1.28293e-09)
(0 -0 -1.9582e-09)
(0 -0 -2.82993e-09)
(0 -0 -3.89946e-09)
(0 -0 -5.14909e-09)
(0 -0 -6.53447e-09)
(0 -0 -7.98667e-09)
(0 -0 -9.41128e-09)
(0 -0 -1.06899e-08)
(0 -0 -1.16895e-08)
(0 -0 -1.22633e-08)
(0 -0 -1.22697e-08)
(0 -0 -1.15785e-08)
(0 -0 -1.01003e-08)
(0 -0 -7.85087e-09)
(0 -0 -4.97501e-09)
(0 -0 -2.29688e-09)
(0 -0 0.000291715)
(0 -0 -0.000125136)
(0 -0 4.13257e-05)
(0 -0 -9.28203e-06)
(0 -0 4.68944e-06)
(0 -0 3.35419e-08)
(0 -0 1.09277e-06)
(0 -0 4.83954e-07)
(0 -0 4.49955e-07)
(0 -0 2.88058e-07)
(0 -0 2.09529e-07)
(0 -0 1.38917e-07)
(0 -0 9.25742e-08)
(0 -0 5.88319e-08)
(0 -0 3.61891e-08)
(0 -0 2.09509e-08)
(0 -0 1.10744e-08)
(0 -0 4.77464e-09)
(0 -0 1.24638e-09)
(0 -0 -3.60626e-10)
)
;
    }
    frontAndBack
    {
        type            empty;
    }
}


// ************************************************************************* //
