/*--------------------------------*- C++ -*----------------------------------*\
| =========                 |                                                 |
| \\      /  F ield         | OpenFOAM: The Open Source CFD Toolbox           |
|  \\    /   O peration     | Version:  2506                                  |
|   \\  /    A nd           | Website:  www.openfoam.com                      |
|    \\/     M anipulation  |                                                 |
\*---------------------------------------------------------------------------*/
FoamFile
{
    version     2.0;
    format      ascii;
    arch        "LSB;label=32;scalar=64";
    class       volScalarField;
    location    "3.625";
    object      divU;
}
// * * * * * * * * * * * * * * * * * * * * * * * * * * * * * * * * * * * * * //

dimensions      [0 0 -1 0 0 0 0];

internalField   nonuniform List<scalar> 
400
(
3.06471e-07
-3.99309e-07
7.20587e-08
-3.28293e-08
4.78316e-09
-2.08929e-09
4.46977e-10
-1.12781e-10
3.44922e-11
-7.51406e-12
2.49523e-12
-2.40866e-13
5.37023e-13
4.04059e-13
4.89678e-13
2.58221e-13
-1.98274e-13
-2.61288e-13
1.22926e-12
-1.35525e-13
-9.73676e-07
1.28651e-06
-2.62183e-07
1.19973e-07
-2.27856e-08
8.95269e-09
-2.28103e-09
6.21127e-10
-1.93862e-10
5.0297e-11
-1.41782e-11
4.3633e-12
-8.13244e-13
6.77922e-13
3.95024e-13
2.27216e-14
-3.66649e-13
3.27703e-13
1.03532e-12
-2.98156e-13
1.50828e-06
-2.01561e-06
4.08159e-07
-1.86966e-07
3.58253e-08
-1.39855e-08
3.60604e-09
-9.79029e-10
3.0975e-10
-7.79294e-11
2.36486e-11
-6.11233e-12
2.17479e-12
-1.99016e-13
5.10323e-13
2.74813e-13
-3.30731e-13
-3.46573e-13
1.09111e-12
-2.71051e-14
-1.92113e-06
2.60475e-06
-5.26228e-07
2.415e-07
-4.64277e-08
1.81579e-08
-4.69212e-09
1.2936e-09
-4.06132e-10
1.05854e-10
-3.04128e-11
9.1737e-12
-2.05974e-12
1.13691e-12
3.16947e-13
-6.26777e-14
-3.96335e-13
3.87827e-13
1.04936e-12
-3.79471e-13
2.20735e-06
-3.04155e-06
6.12051e-07
-2.82227e-07
5.41903e-08
-2.13151e-08
5.50773e-09
-1.53009e-09
4.82049e-10
-1.24453e-10
3.72468e-11
-1.02221e-11
3.21872e-12
-5.68503e-13
5.67968e-13
1.82029e-13
-2.88994e-13
-3.67895e-13
8.81273e-13
8.13152e-14
-2.36453e-06
3.31541e-06
-6.62389e-07
3.07427e-07
-5.8445e-08
2.31289e-08
-5.95555e-09
1.65428e-09
-5.23522e-10
1.35116e-10
-4.00593e-11
1.1511e-11
-2.96637e-12
1.23379e-12
1.7732e-13
-1.63021e-13
-4.55081e-13
5.47503e-13
8.30432e-13
-4.33681e-13
2.44535e-06
-3.48731e-06
6.93781e-07
-3.23698e-07
6.12813e-08
-2.43971e-08
6.26804e-09
-1.75148e-09
5.51949e-10
-1.43408e-10
4.2393e-11
-1.21283e-11
3.43387e-12
-8.5163e-13
4.12361e-13
7.15502e-14
-2.92557e-13
-4.40949e-13
6.79965e-13
5.42101e-14
-2.43428e-06
3.53216e-06
-6.97074e-07
3.27568e-07
-6.1318e-08
2.4531e-08
-6.28153e-09
1.74552e-09
-5.54477e-10
1.42073e-10
-4.26746e-11
1.18571e-11
-3.39266e-12
1.15261e-12
3.66648e-14
-3.70019e-13
-5.02699e-13
5.57569e-13
6.42476e-13
-4.06576e-13
2.39079e-06
-3.5213e-06
6.92682e-07
-3.26816e-07
6.103e-08
-2.44993e-08
6.26774e-09
-1.74872e-09
5.51817e-10
-1.43448e-10
4.20703e-11
-1.23188e-11
3.21483e-12
-9.42916e-13
3.45699e-13
-8.76271e-14
-3.7292e-13
-3.81716e-13
4.32188e-13
-5.42101e-14
-2.28288e-06
3.41197e-06
-6.66688e-07
3.16308e-07
-5.85028e-08
2.35589e-08
-6.0117e-09
1.66579e-09
-5.30007e-10
1.35141e-10
-4.09064e-11
1.1115e-11
-3.40999e-12
9.75576e-13
-1.09637e-13
-5.29712e-13
-5.18886e-13
6.71598e-13
3.73534e-13
-4.60786e-13
2.16224e-06
-3.26956e-06
6.37844e-07
-3.03319e-07
5.60928e-08
-2.26221e-08
5.77436e-09
-1.6054e-09
5.06794e-10
-1.31676e-10
3.83089e-11
-1.14327e-11
2.81332e-12
-9.82838e-13
1.42013e-13
-1.95263e-13
-3.53312e-13
-2.40366e-13
1.07127e-13
-8.13152e-14
-1.99234e-06
3.04817e-06
-5.91335e-07
2.82453e-07
-5.18104e-08
2.09392e-08
-5.33412e-09
1.47219e-09
-4.68508e-10
1.19186e-10
-3.61644e-11
9.67976e-12
-3.16431e-12
7.61072e-13
-1.22365e-13
-6.64903e-13
-6.21247e-13
7.54612e-13
1.62052e-13
-5.42101e-13
1.81944e-06
-2.80814e-06
5.44563e-07
-2.60403e-07
4.78496e-08
-1.93348e-08
4.93369e-09
-1.36478e-09
4.30736e-10
-1.12065e-10
3.23368e-11
-9.87244e-12
2.26227e-12
-7.89581e-13
3.40783e-14
-3.35528e-13
-3.55176e-13
-9.04274e-14
-1.44003e-13
-1.0842e-13
-1.60949e-06
2.50734e-06
-4.83875e-07
2.32247e-07
-4.23767e-08
1.71459e-08
-4.36837e-09
1.19931e-09
-3.81578e-10
9.70026e-11
-2.95693e-11
7.65996e-12
-2.71479e-12
6.24743e-13
-1.19266e-13
-7.44327e-13
-5.64499e-13
6.55375e-13
-1.15505e-13
-3.79471e-13
1.40183e-06
-2.19782e-06
4.24338e-07
-2.0374e-07
3.73057e-08
-1.50616e-08
3.85053e-09
-1.05823e-09
3.33523e-10
-8.72903e-11
2.48387e-11
-7.78151e-12
1.6247e-12
-7.48626e-13
-7.11248e-14
-5.69477e-13
-3.54318e-13
1.1125e-13
-3.92204e-13
-2.1684e-13
-1.17014e-06
1.84736e-06
-3.55185e-07
1.71062e-07
-3.11421e-08
1.25735e-08
-3.21289e-09
8.74389e-10
-2.7944e-10
6.99607e-11
-2.22247e-11
4.96198e-12
-2.42769e-12
1.57463e-13
-4.48615e-13
-9.2995e-13
-6.43119e-13
5.73323e-13
-3.7477e-13
-4.06576e-13
9.43907e-07
-1.4962e-06
2.8819e-07
-1.38603e-07
2.53978e-08
-1.01885e-08
2.61509e-09
-7.14452e-10
2.22471e-10
-5.96631e-11
1.60277e-11
-5.46697e-12
8.30587e-13
-5.83794e-13
-1.16081e-13
-5.72673e-13
-2.20189e-13
3.06499e-13
-5.17323e-13
-2.71051e-13
-7.00182e-07
1.11705e-06
-2.14211e-07
1.03517e-07
-1.89885e-08
7.57036e-09
-1.96575e-09
5.28295e-10
-1.68307e-10
4.3917e-11
-1.26029e-11
3.8041e-12
-1.07523e-12
5.91894e-13
9.72691e-14
-5.26064e-13
-4.79371e-13
5.37084e-13
-2.18638e-13
-3.25261e-13
4.71435e-07
-7.50478e-07
1.43507e-07
-6.87597e-08
1.23772e-08
-4.87482e-09
1.25307e-09
-3.2698e-10
1.03907e-10
-2.65349e-11
7.18312e-12
-2.81191e-12
-1.69138e-14
-4.06349e-13
-4.39357e-13
-1.12506e-12
-4.03733e-13
8.65943e-13
-4.51492e-13
-1.89735e-13
-2.12707e-07
3.31002e-07
-7.63891e-08
3.65124e-08
-8.19502e-09
3.08534e-09
-8.61751e-10
2.4858e-10
-7.92281e-11
2.03288e-11
-7.61652e-12
1.0571e-12
-1.21973e-12
-2.71051e-14
-4.87891e-13
-7.31836e-13
2.71051e-14
5.69206e-13
-1.35525e-12
-1.35525e-13
)
;

boundaryField
{
    movingWall
    {
        type            extrapolatedCalculated;
        value           nonuniform List<scalar> 
20
(
-2.12707e-07
3.31002e-07
-7.63891e-08
3.65124e-08
-8.19502e-09
3.08534e-09
-8.61751e-10
2.4858e-10
-7.92281e-11
2.03288e-11
-7.61652e-12
1.0571e-12
-1.21973e-12
-2.71051e-14
-4.87891e-13
-7.31836e-13
2.71051e-14
5.69206e-13
-1.35525e-12
-1.35525e-13
)
;
    }
    fixedWalls
    {
        type            extrapolatedCalculated;
        value           nonuniform List<scalar> 
60
(
3.06471e-07
-9.73676e-07
1.50828e-06
-1.92113e-06
2.20735e-06
-2.36453e-06
2.44535e-06
-2.43428e-06
2.39079e-06
-2.28288e-06
2.16224e-06
-1.99234e-06
1.81944e-06
-1.60949e-06
1.40183e-06
-1.17014e-06
9.43907e-07
-7.00182e-07
4.71435e-07
-2.12707e-07
-1.35525e-13
-2.98156e-13
-2.71051e-14
-3.79471e-13
8.13152e-14
-4.33681e-13
5.42101e-14
-4.06576e-13
-5.42101e-14
-4.60786e-13
-8.13152e-14
-5.42101e-13
-1.0842e-13
-3.79471e-13
-2.1684e-13
-4.06576e-13
-2.71051e-13
-3.25261e-13
-1.89735e-13
-1.35525e-13
3.06471e-07
-3.99309e-07
7.20587e-08
-3.28293e-08
4.78316e-09
-2.08929e-09
4.46977e-10
-1.12781e-10
3.44922e-11
-7.51406e-12
2.49523e-12
-2.40866e-13
5.37023e-13
4.04059e-13
4.89678e-13
2.58221e-13
-1.98274e-13
-2.61288e-13
1.22926e-12
-1.35525e-13
)
;
    }
    frontAndBack
    {
        type            empty;
    }
}


// ************************************************************************* //
