/*--------------------------------*- C++ -*----------------------------------*\
| =========                 |                                                 |
| \\      /  F ield         | OpenFOAM: The Open Source CFD Toolbox           |
|  \\    /   O peration     | Version:  2506                                  |
|   \\  /    A nd           | Website:  www.openfoam.com                      |
|    \\/     M anipulation  |                                                 |
\*---------------------------------------------------------------------------*/
FoamFile
{
    version     2.0;
    format      ascii;
    arch        "LSB;label=32;scalar=64";
    class       volScalarField;
    location    "3.625";
    object      enstrophyField;
}
// * * * * * * * * * * * * * * * * * * * * * * * * * * * * * * * * * * * * * //

dimensions      [0 0 -2 0 0 0 0];

internalField   nonuniform List<scalar> 
400
(
1.13332e-10
1.52225e-10
8.28745e-12
4.64642e-13
2.51289e-14
1.4003e-15
7.51416e-17
4.39648e-18
1.90129e-19
2.12729e-20
9.84195e-25
7.68114e-22
2.33612e-22
1.63995e-22
7.89756e-23
3.66003e-23
1.107e-23
1.9408e-25
2.01149e-24
4.15836e-25
1.27193e-10
1.56539e-10
8.70672e-12
4.83798e-13
2.68578e-14
1.4885e-15
8.24334e-17
4.54251e-18
2.52365e-19
1.36393e-20
7.80781e-22
4.14187e-23
2.95836e-24
1.01062e-25
7.34251e-25
1.15477e-25
5.67492e-26
1.47412e-24
1.2844e-23
1.41588e-25
1.23064e-10
1.57299e-10
8.74912e-12
4.86468e-13
2.70429e-14
1.5031e-15
8.34434e-17
4.63983e-18
2.55845e-19
1.42724e-20
7.95139e-22
3.73121e-23
2.33776e-24
1.45041e-24
1.17117e-24
2.75194e-25
1.74938e-25
3.96774e-24
3.46526e-23
4.55319e-25
1.20103e-10
1.59522e-10
8.88668e-12
4.94974e-13
2.75718e-14
1.53544e-15
8.55946e-17
4.75476e-18
2.66626e-19
1.46631e-20
8.08617e-22
5.31729e-23
2.81965e-24
5.46525e-25
2.7203e-24
4.41263e-25
3.14333e-25
7.26322e-24
6.32678e-23
8.63001e-25
1.17537e-10
1.62774e-10
9.08362e-12
5.06863e-13
2.82853e-14
1.57907e-15
8.805e-17
4.93199e-18
2.72692e-19
1.55172e-20
8.5742e-22
4.03475e-23
2.01736e-24
3.50953e-24
3.39973e-24
7.65735e-25
4.59516e-25
1.10004e-23
9.69767e-23
1.29264e-24
1.16573e-10
1.6731e-10
9.3532e-12
5.22819e-13
2.92318e-14
1.6341e-15
9.1504e-17
5.09802e-18
2.88529e-19
1.57265e-20
9.05945e-22
5.64471e-23
4.60382e-24
2.41321e-24
6.60659e-24
1.27697e-24
4.08395e-25
1.61652e-23
1.29959e-22
1.81747e-24
1.16803e-10
1.72958e-10
9.68634e-12
5.42429e-13
3.03791e-14
1.7024e-15
9.52603e-17
5.36246e-18
2.96736e-19
1.71634e-20
9.18416e-22
5.04284e-23
8.74373e-25
8.15172e-24
7.98391e-24
2.03183e-24
3.50076e-25
2.04243e-23
1.61426e-22
2.44136e-24
1.18313e-10
1.79645e-10
1.0078e-11
5.65294e-13
3.17179e-14
1.77923e-15
1.00011e-16
5.586e-18
3.18498e-19
1.71921e-20
1.04401e-21
5.33719e-23
8.79702e-24
5.97226e-24
1.23713e-23
3.15226e-24
1.98084e-25
2.52781e-23
1.88687e-22
2.92679e-24
1.20647e-10
1.87072e-10
1.05108e-11
5.90501e-13
3.31778e-14
1.8654e-15
1.04693e-16
5.91905e-18
3.27109e-19
1.93136e-20
9.66121e-22
6.85314e-23
5.13766e-26
1.38214e-23
1.27989e-23
3.76686e-24
9.40457e-26
2.93011e-23
2.04466e-22
3.40141e-24
1.23606e-10
1.95074e-10
1.09754e-11
6.1741e-13
3.4742e-14
1.95437e-15
1.10187e-16
6.16768e-18
3.53717e-19
1.88617e-20
1.22606e-21
4.77171e-23
1.56083e-23
1.07263e-23
1.74232e-23
4.6284e-24
1.38916e-26
3.23744e-23
2.14581e-22
3.54739e-24
1.26971e-10
2.03316e-10
1.1452e-11
6.4497e-13
3.63272e-14
2.04752e-15
1.15185e-16
6.53054e-18
3.6107e-19
2.15934e-20
1.02224e-21
9.22188e-23
3.2946e-25
2.05218e-23
1.87208e-23
6.38605e-24
1.24813e-26
3.44428e-23
2.16526e-22
3.76339e-24
1.30578e-10
2.11683e-10
1.19351e-11
6.72791e-13
3.79363e-14
2.13844e-15
1.20804e-16
6.77466e-18
3.89789e-19
2.06517e-20
1.40111e-21
4.20874e-23
2.17839e-23
1.44296e-23
2.11931e-23
6.24865e-24
5.14527e-26
3.41287e-23
2.09818e-22
3.61589e-24
1.34309e-10
2.19805e-10
1.24022e-11
6.99673e-13
3.94747e-14
2.22858e-15
1.25587e-16
7.13016e-18
3.94809e-19
2.37532e-20
1.09173e-21
1.10716e-22
7.2816e-25
2.21538e-23
1.83357e-23
6.2063e-24
1.16312e-25
3.20318e-23
1.94674e-22
3.29512e-24
1.37956e-10
2.27618e-10
1.28515e-11
7.2544e-13
4.09595e-14
2.31201e-15
1.30758e-16
7.34685e-18
4.22573e-19
2.24579e-20
1.53728e-21
4.30774e-23
2.50965e-23
1.33489e-23
1.87347e-23
5.68288e-24
1.34899e-25
2.8988e-23
1.75517e-22
2.66346e-24
1.41526e-10
2.34759e-10
1.32604e-11
7.48881e-13
4.22956e-14
2.39011e-15
1.34865e-16
7.65648e-18
4.25718e-19
2.53986e-20
1.19354e-21
1.18383e-22
3.80267e-25
1.88644e-23
1.39219e-23
5.03255e-24
9.63676e-26
2.39841e-23
1.45053e-22
2.09686e-24
1.44767e-10
2.41212e-10
1.36303e-11
7.70016e-13
4.35096e-14
2.45802e-15
1.39076e-16
7.82856e-18
4.49005e-19
2.41412e-20
1.60486e-21
4.98121e-23
2.15768e-23
8.15002e-24
1.21296e-23
3.00207e-24
9.04167e-26
1.89083e-23
1.09049e-22
1.65132e-24
1.47603e-10
2.46599e-10
1.3937e-11
7.87507e-13
4.4501e-14
2.51579e-15
1.42071e-16
8.06008e-18
4.50157e-19
2.65662e-20
1.29164e-21
1.17622e-22
8.80887e-27
1.2039e-23
7.87372e-24
3.16176e-24
1.91802e-25
1.3857e-23
7.35727e-23
1.36713e-24
1.50571e-10
2.51222e-10
1.42015e-11
8.02581e-13
4.53642e-14
2.56395e-15
1.45045e-16
8.18165e-18
4.6652e-19
2.56347e-20
1.59334e-21
6.39339e-23
1.28381e-23
2.52403e-24
4.62318e-24
1.03445e-24
5.06718e-27
7.80236e-24
4.68897e-23
7.30017e-25
1.5182e-10
2.54567e-10
1.44139e-11
8.15944e-13
4.61921e-14
2.61581e-15
1.4806e-16
8.39653e-18
4.7379e-19
2.71006e-20
1.50895e-21
8.38933e-23
4.24006e-24
9.12869e-25
5.34298e-26
2.07938e-25
1.45508e-24
1.53492e-24
2.61813e-23
1.75741e-26
1.60121e-10
2.58603e-10
1.48574e-11
8.38975e-13
4.84061e-14
2.73459e-15
1.61601e-16
8.47451e-18
6.46265e-19
1.31089e-20
7.5833e-21
5.51012e-22
7.39339e-22
2.86241e-22
1.39596e-22
5.68736e-23
2.00253e-23
8.15642e-25
2.37148e-24
8.25802e-25
)
;

boundaryField
{
    movingWall
    {
        type            calculated;
        value           nonuniform List<scalar> 
20
(
2.01847e-10
2.69613e-10
1.60593e-11
9.0062e-13
5.40265e-14
3.07141e-15
1.90719e-16
9.53299e-18
9.36382e-19
5.58074e-21
2.00072e-20
3.30116e-21
2.93798e-21
1.28061e-21
6.22477e-22
2.79498e-22
1.13823e-22
3.43954e-24
2.97993e-23
4.78249e-24
)
;
    }
    fixedWalls
    {
        type            calculated;
        value           nonuniform List<scalar> 
60
(
2.73156e-09
2.81716e-09
2.83419e-09
2.87333e-09
2.93092e-09
3.01122e-09
3.11128e-09
3.22974e-09
3.36146e-09
3.50347e-09
3.64997e-09
3.79874e-09
3.94336e-09
4.08247e-09
4.20976e-09
4.32475e-09
4.42095e-09
4.50317e-09
4.55637e-09
4.63919e-09
5.36807e-24
2.53379e-23
6.8399e-23
1.24948e-22
1.90325e-22
2.56666e-22
3.19843e-22
3.71298e-22
4.08389e-22
4.27177e-22
4.29817e-22
4.16519e-22
3.8502e-22
3.39542e-22
2.77627e-22
2.11156e-22
1.46603e-22
9.01023e-23
4.01148e-23
1.128e-23
7.39574e-11
1.42752e-10
7.3126e-12
4.24213e-13
2.1449e-14
1.20379e-15
6.15327e-17
3.72562e-18
1.13622e-19
2.70082e-20
1.05353e-21
2.32431e-21
1.04407e-21
6.25169e-22
3.12506e-22
1.44397e-22
4.82458e-23
2.58729e-25
1.85642e-23
1.64431e-24
)
;
    }
    frontAndBack
    {
        type            empty;
    }
}


// ************************************************************************* //
