/*--------------------------------*- C++ -*----------------------------------*\
| =========                 |                                                 |
| \\      /  F ield         | OpenFOAM: The Open Source CFD Toolbox           |
|  \\    /   O peration     | Version:  2506                                  |
|   \\  /    A nd           | Website:  www.openfoam.com                      |
|    \\/     M anipulation  |                                                 |
\*---------------------------------------------------------------------------*/
FoamFile
{
    version     2.0;
    format      ascii;
    arch        "LSB;label=32;scalar=64";
    class       volScalarField;
    location    "3.625";
    object      flowTypeField;
}
// * * * * * * * * * * * * * * * * * * * * * * * * * * * * * * * * * * * * * //

dimensions      [0 0 0 0 0 0 0];

internalField   nonuniform List<scalar> 
400
(
-0.0736027
-0.0127826
-0.024686
-0.0223242
-0.0348746
-0.0435335
-0.0409745
-0.0926362
0.015121
-0.389742
0.959127
-0.172668
0.122548
0.0496832
0.0891037
0.133763
0.326574
0.863029
0.475635
0.679438
-0.129089
-0.0198366
-0.0410664
-0.0300277
-0.0547213
-0.0548008
-0.0597762
-0.0895251
-0.0570024
-0.137035
0.0678285
0.103484
0.714745
0.92242
0.772732
0.883028
0.91795
0.652308
0.0259592
0.783815
-0.0970674
-0.0101522
-0.0276659
-0.00761933
-0.0309773
-0.011702
-0.0144212
-0.0110279
0.00822015
0.0597166
-0.0694952
0.455836
0.658593
0.747739
0.713132
0.816094
0.853174
0.500946
-0.0234793
0.645766
-0.0665556
-0.00123756
-0.016239
0.0112064
-0.0114392
0.0206647
0.0254372
0.033869
0.092516
0.0751198
0.239621
-0.0365306
0.720282
0.80715
0.592878
0.770901
0.794779
0.33934
-0.0201369
0.493701
-0.0362101
0.00702266
-0.00517408
0.0276351
0.00682664
0.0483513
0.0579948
0.0772754
0.135456
0.17147
0.156971
0.492176
0.588809
0.617674
0.534354
0.682869
0.728784
0.270726
-0.0306991
0.422401
-0.012385
0.0128705
0.00290182
0.038323
0.0183467
0.0649864
0.0749277
0.0990076
0.163177
0.171499
0.298152
0.0966383
0.649997
0.60007
0.415103
0.59944
0.713805
0.124905
-0.026119
0.27078
0.00672828
0.0169614
0.00915059
0.0450986
0.0271645
0.0753487
0.0873013
0.113506
0.174984
0.210562
0.215328
0.480966
0.661029
0.45342
0.351254
0.485317
0.67983
0.108027
-0.0303956
0.208188
0.0202593
0.0189073
0.0129382
0.0472576
0.0309633
0.0776795
0.0888847
0.114077
0.178277
0.184261
0.306071
0.139686
0.545316
0.421379
0.273953
0.38914
0.710927
0.027405
-0.0328128
0.104897
0.0305636
0.0198185
0.0156358
0.0475561
0.0335004
0.0780704
0.0888587
0.115915
0.169313
0.208868
0.206493
0.439954
0.902042
0.345737
0.255165
0.335112
0.728894
0.0190718
-0.0259977
0.0655621
0.0378712
0.0195078
0.0170255
0.0451781
0.0335113
0.0733721
0.0840064
0.105585
0.165595
0.162087
0.286844
0.118846
0.446837
0.324035
0.215778
0.289398
0.852179
-0.00496368
-0.0267298
0.0545632
0.0432671
0.0187736
0.0179008
0.0422641
0.0330978
0.069187
0.0778922
0.10322
0.143003
0.189359
0.161244
0.388437
0.796544
0.281742
0.189296
0.203748
0.788538
-0.00968504
-0.0266922
0.0406745
0.046915
0.0174153
0.0180844
0.0379201
0.0315711
0.0615388
0.0710931
0.0873034
0.140297
0.123677
0.257658
0.105951
0.401411
0.315935
0.20257
0.234087
0.680625
0.00868903
-0.0269286
0.0842696
0.0492648
0.0159767
0.0180047
0.033766
0.0298268
0.0556751
0.0621151
0.0846218
0.107824
0.162481
0.0984234
0.356234
0.784207
0.314614
0.248069
0.276173
0.644571
0.0244925
-0.0222236
0.102133
0.050764
0.0143542
0.0176581
0.0291224
0.027952
0.0475437
0.0559335
0.0661581
0.111242
0.0786793
0.229922
0.169857
0.413659
0.412784
0.283103
0.314447
0.729535
0.0664612
-0.0335462
0.217763
0.0511932
0.0128008
0.0171207
0.0249874
0.025755
0.0418516
0.0459576
0.0658427
0.0709099
0.13648
0.0362903
0.354567
0.884142
0.406643
0.367505
0.394127
0.824013
0.111609
-0.0260248
0.302291
0.0513111
0.011349
0.0165701
0.0210124
0.024116
0.034592
0.0420965
0.0463476
0.084334
0.0378862
0.209061
0.312888
0.505791
0.581441
0.43075
0.531091
0.863447
0.195488
-0.0239037
0.398458
0.0510007
0.0101252
0.0160314
0.0178549
0.022132
0.0307323
0.0323594
0.0505606
0.0406558
0.109763
0.0343147
0.368959
0.985776
0.536994
0.515223
0.536677
0.833692
0.247965
-0.00946304
0.434103
0.0486364
0.0087227
0.0150795
0.0145718
0.0209502
0.0245035
0.0321698
0.0321289
0.0625021
0.0229291
0.186302
0.389195
0.62798
0.765974
0.625142
0.724842
0.973325
0.364788
-0.0489855
0.573412
0.0497528
0.0076251
0.013603
0.010897
0.0155919
0.0186184
0.0168794
0.0293351
0.0164025
0.0690793
0.0531473
0.458014
0.775714
0.867485
0.955323
0.882876
0.683728
0.687642
-0.0839524
0.931133
0.0268503
0.00371157
0.00652716
0.00475074
0.00538682
0.0103978
-0.00501172
0.0422787
-0.097092
0.347742
-0.601968
0.332623
-0.0244156
0.109104
0.0878944
0.147499
0.334544
0.81169
0.587375
0.676237
)
;

boundaryField
{
    movingWall
    {
        type            calculated;
        value           nonuniform List<scalar> 
20
(
0.745705
0.263405
0.249706
0.254936
0.240966
0.24309
0.217497
0.266848
0.0775686
0.679649
-0.349491
0.178635
-0.0493179
0.0267527
0.00313171
0.0306177
0.118261
0.669131
0.284166
0.414272
)
;
    }
    fixedWalls
    {
        type            calculated;
        value           nonuniform List<scalar> 
60
(
-0.0139097
-0.0222149
-0.0124162
-0.00271102
0.00629422
0.012757
0.0173777
0.0197268
0.0209796
0.020894
0.0203378
0.0190729
0.0177039
0.0160965
0.0145541
0.0130813
0.0118358
0.0104204
0.0100173
0.00522147
0.159148
0.0754396
0.0267881
0.0147404
0.0107564
0.00840098
0.00549691
0.00541477
0.00392674
0.00467556
0.00380353
0.0032001
0.00460117
0.00682642
0.0102941
0.010525
0.0103113
0.0238262
0.0891263
0.167021
0.791101
0.272418
0.292092
0.273657
0.291956
0.282198
0.296591
0.254613
0.422928
-0.0964986
0.461079
-0.123259
0.0508883
0.000551133
0.019077
0.0376298
0.128205
0.836548
0.224577
0.471146
)
;
    }
    frontAndBack
    {
        type            empty;
    }
}


// ************************************************************************* //
