/*--------------------------------*- C++ -*----------------------------------*\
| =========                 |                                                 |
| \\      /  F ield         | OpenFOAM: The Open Source CFD Toolbox           |
|  \\    /   O peration     | Version:  2506                                  |
|   \\  /    A nd           | Website:  www.openfoam.com                      |
|    \\/     M anipulation  |                                                 |
\*---------------------------------------------------------------------------*/
FoamFile
{
    version     2.0;
    format      ascii;
    arch        "LSB;label=32;scalar=64";
    class       surfaceScalarField;
    location    "3.625";
    object      fluxField;
}
// * * * * * * * * * * * * * * * * * * * * * * * * * * * * * * * * * * * * * //

dimensions      [0 3 -1 0 0 0 0];

oriented        oriented;

internalField   nonuniform List<scalar> 
760
(
-5e-05
-1.89607e-14
-5e-05
6.87404e-15
-5e-05
-1.0403e-15
-5e-05
4.58366e-16
-5e-05
-2.87764e-17
-5e-05
2.61883e-17
-5e-05
1.0778e-17
-5e-05
4.73061e-18
-5e-05
4.42855e-18
-5e-05
2.55994e-18
-5e-05
2.27044e-18
-5e-05
1.87102e-18
-5e-05
1.74023e-18
-5e-05
1.49693e-18
-5e-05
1.22695e-18
-5e-05
9.92903e-19
-5e-05
9.872e-19
-5e-05
1.02566e-18
-5e-05
4.15735e-19
-6.07354e-19
-5e-05
3.6297e-14
-5e-05
-1.29907e-14
-5e-05
3.44298e-15
-5e-05
-1.01919e-15
-5e-05
3.61102e-16
-5e-05
-6.47463e-17
-5e-05
4.21054e-17
-5e-05
2.38209e-18
-5e-05
8.84804e-18
-5e-05
4.59182e-18
-5e-05
4.34979e-18
-5e-05
3.65903e-18
-5e-05
3.42199e-18
-5e-05
2.95452e-18
-5e-05
2.42979e-18
-5e-05
1.95724e-18
-5e-05
1.92766e-18
-5e-05
2.06059e-18
-5e-05
7.73825e-19
-1.18609e-18
-5e-05
-5.33139e-14
-5e-05
1.70372e-14
-5e-05
-4.0867e-15
-5e-05
1.25942e-15
-5e-05
-3.04391e-16
-5e-05
1.07889e-16
-5e-05
-1.01345e-17
-5e-05
1.77755e-17
-5e-05
6.72036e-18
-5e-05
7.3923e-18
-5e-05
5.7563e-18
-5e-05
5.34305e-18
-5e-05
4.94827e-18
-5e-05
4.32094e-18
-5e-05
3.56315e-18
-5e-05
2.88085e-18
-5e-05
2.81756e-18
-5e-05
3.01011e-18
-5e-05
1.12659e-18
-1.72748e-18
-5e-05
6.97438e-14
-5e-05
-2.13703e-14
-5e-05
5.18367e-15
-5e-05
-1.51136e-15
-5e-05
4.20145e-16
-5e-05
-9.47522e-17
-5e-05
4.41903e-17
-5e-05
2.84311e-18
-5e-05
1.17729e-17
-5e-05
7.49003e-18
-5e-05
7.41976e-18
-5e-05
6.65056e-18
-5e-05
6.34942e-18
-5e-05
5.54938e-18
-5e-05
4.599e-18
-5e-05
3.72483e-18
-5e-05
3.63464e-18
-5e-05
3.88489e-18
-5e-05
1.44141e-18
-2.21926e-18
-5e-05
-8.40245e-14
-5e-05
2.41201e-14
-5e-05
-5.80398e-15
-5e-05
1.62417e-15
-5e-05
-4.11003e-16
-5e-05
1.21451e-16
-5e-05
-1.82875e-17
-5e-05
1.90854e-17
-5e-05
8.03985e-18
-5e-05
9.78158e-18
-5e-05
8.27494e-18
-5e-05
7.98833e-18
-5e-05
7.56739e-18
-5e-05
6.66802e-18
-5e-05
5.52235e-18
-5e-05
4.47718e-18
-5e-05
4.35943e-18
-5e-05
4.63786e-18
-5e-05
1.7111e-18
-2.65069e-18
-5e-05
9.63832e-14
-5e-05
-2.68211e-14
-5e-05
6.38098e-15
-5e-05
-1.75433e-15
-5e-05
4.52871e-16
-5e-05
-1.03534e-16
-5e-05
4.35318e-17
-5e-05
4.15451e-18
-5e-05
1.33591e-17
-5e-05
9.79108e-18
-5e-05
9.76509e-18
-5e-05
9.07803e-18
-5e-05
8.72485e-18
-5e-05
7.65392e-18
-5e-05
6.33948e-18
-5e-05
5.12953e-18
-5e-05
4.9752e-18
-5e-05
5.26651e-18
-5e-05
1.922e-18
-3.01205e-18
-5e-05
-1.06238e-13
-5e-05
2.85714e-14
-5e-05
-6.77911e-15
-5e-05
1.81914e-15
-5e-05
-4.37186e-16
-5e-05
1.29188e-16
-5e-05
-1.54516e-17
-5e-05
2.13246e-17
-5e-05
1.07628e-17
-5e-05
1.22392e-17
-5e-05
1.0727e-17
-5e-05
1.02968e-17
-5e-05
9.74215e-18
-5e-05
8.53525e-18
-5e-05
7.04198e-18
-5e-05
5.68284e-18
-5e-05
5.4834e-18
-5e-05
5.75801e-18
-5e-05
2.0809e-18
-3.29916e-18
-5e-05
1.12723e-13
-5e-05
-2.96973e-14
-5e-05
7.07296e-15
-5e-05
-1.82693e-15
-5e-05
4.75942e-16
-5e-05
-9.52576e-17
-5e-05
4.74771e-17
-5e-05
8.93239e-18
-5e-05
1.65774e-17
-5e-05
1.28312e-17
-5e-05
1.23029e-17
-5e-05
1.13397e-17
-5e-05
1.06986e-17
-5e-05
9.28703e-18
-5e-05
7.63246e-18
-5e-05
6.13488e-18
-5e-05
5.87809e-18
-5e-05
6.12283e-18
-5e-05
2.18672e-18
-3.50462e-18
-5e-05
-1.16929e-13
-5e-05
3.04062e-14
-5e-05
-7.18e-15
-5e-05
1.88839e-15
-5e-05
-4.30315e-16
-5e-05
1.3806e-16
-5e-05
-7.31283e-18
-5e-05
2.63438e-17
-5e-05
1.5114e-17
-5e-05
1.55224e-17
-5e-05
1.34246e-17
-5e-05
1.24651e-17
-5e-05
1.1517e-17
-5e-05
9.92189e-18
-5e-05
8.09597e-18
-5e-05
6.48331e-18
-5e-05
6.16126e-18
-5e-05
6.34202e-18
-5e-05
2.24935e-18
-3.62829e-18
-5e-05
1.16681e-13
-5e-05
-2.98639e-14
-5e-05
7.1364e-15
-5e-05
-1.76991e-15
-5e-05
4.76438e-16
-5e-05
-7.90272e-17
-5e-05
5.35689e-17
-5e-05
1.56122e-17
-5e-05
2.10076e-17
-5e-05
1.64177e-17
-5e-05
1.49743e-17
-5e-05
1.33836e-17
-5e-05
1.22325e-17
-5e-05
1.04083e-17
-5e-05
8.42937e-18
-5e-05
6.70482e-18
-5e-05
6.31451e-18
-5e-05
6.43594e-18
-5e-05
2.26179e-18
-3.67455e-18
-5e-05
-1.15125e-13
-5e-05
2.93882e-14
-5e-05
-6.90655e-15
-5e-05
1.81135e-15
-5e-05
-3.88743e-16
-5e-05
1.41464e-16
-5e-05
3.51857e-18
-5e-05
3.19976e-17
-5e-05
1.99792e-17
-5e-05
1.89195e-17
-5e-05
1.59401e-17
-5e-05
1.42316e-17
-5e-05
1.27244e-17
-5e-05
1.07183e-17
-5e-05
8.60748e-18
-5e-05
6.80199e-18
-5e-05
6.34912e-18
-5e-05
6.40446e-18
-5e-05
2.24262e-18
-3.64823e-18
-5e-05
1.0877e-13
-5e-05
-2.7314e-14
-5e-05
6.55328e-15
-5e-05
-1.57072e-15
-5e-05
4.43301e-16
-5e-05
-5.56174e-17
-5e-05
5.80838e-17
-5e-05
2.2518e-17
-5e-05
2.51e-17
-5e-05
1.95439e-17
-5e-05
1.70272e-17
-5e-05
1.47053e-17
-5e-05
1.29851e-17
-5e-05
1.07951e-17
-5e-05
8.60237e-18
-5e-05
6.75912e-18
-5e-05
6.25503e-18
-5e-05
6.26019e-18
-5e-05
2.18859e-18
-3.55011e-18
-5e-05
-1.02376e-13
-5e-05
2.5828e-14
-5e-05
-6.03774e-15
-5e-05
1.59367e-15
-5e-05
-3.17276e-16
-5e-05
1.36162e-16
-5e-05
1.48e-17
-5e-05
3.62032e-17
-5e-05
2.38412e-17
-5e-05
2.11997e-17
-5e-05
1.73541e-17
-5e-05
1.49198e-17
-5e-05
1.29051e-17
-5e-05
1.06175e-17
-5e-05
8.39076e-18
-5e-05
6.55686e-18
-5e-05
6.0234e-18
-5e-05
5.97439e-18
-5e-05
2.09852e-18
-3.3783e-18
-5e-05
9.11778e-14
-5e-05
-2.25383e-14
-5e-05
5.43388e-15
-5e-05
-1.25387e-15
-5e-05
3.78845e-16
-5e-05
-2.79335e-17
-5e-05
5.8869e-17
-5e-05
2.76999e-17
-5e-05
2.71543e-17
-5e-05
2.09099e-17
-5e-05
1.7463e-17
-5e-05
1.45934e-17
-5e-05
1.24605e-17
-5e-05
1.01308e-17
-5e-05
7.94585e-18
-5e-05
6.17005e-18
-5e-05
5.63225e-18
-5e-05
5.55097e-18
-5e-05
1.95657e-18
-3.12007e-18
-5e-05
-8.10211e-14
-5e-05
2.02319e-14
-5e-05
-4.69083e-15
-5e-05
1.25986e-15
-5e-05
-2.21594e-16
-5e-05
1.21472e-16
-5e-05
2.44655e-17
-5e-05
3.69255e-17
-5e-05
2.49084e-17
-5e-05
2.09085e-17
-5e-05
1.66112e-17
-5e-05
1.3762e-17
-5e-05
1.15464e-17
-5e-05
9.28606e-18
-5e-05
7.22604e-18
-5e-05
5.58357e-18
-5e-05
5.07493e-18
-5e-05
4.96093e-18
-5e-05
1.74509e-18
-2.77237e-18
-5e-05
6.64937e-14
-5e-05
-1.62131e-14
-5e-05
3.93958e-15
-5e-05
-8.54827e-16
-5e-05
2.93709e-16
-5e-05
5.8755e-19
-5e-05
5.42399e-17
-5e-05
2.85637e-17
-5e-05
2.50348e-17
-5e-05
1.87506e-17
-5e-05
1.50166e-17
-5e-05
1.21299e-17
-5e-05
1.00589e-17
-5e-05
8.00148e-18
-5e-05
6.183e-18
-5e-05
4.76162e-18
-5e-05
4.32511e-18
-5e-05
4.21587e-18
-5e-05
1.47162e-18
-2.35967e-18
-5e-05
-5.37894e-14
-5e-05
1.32791e-14
-5e-05
-3.00576e-15
-5e-05
8.77395e-16
-5e-05
-1.14619e-16
-5e-05
1.00615e-16
-5e-05
2.68326e-17
-5e-05
3.1214e-17
-5e-05
2.01508e-17
-5e-05
1.61602e-17
-5e-05
1.23282e-17
-5e-05
9.93606e-18
-5e-05
8.11555e-18
-5e-05
6.42025e-18
-5e-05
4.9312e-18
-5e-05
3.80062e-18
-5e-05
3.45506e-18
-5e-05
3.36311e-18
-5e-05
1.17849e-18
-1.91429e-18
-5e-05
3.75869e-14
-5e-05
-9.00342e-15
-5e-05
2.21355e-15
-5e-05
-3.22602e-16
-5e-05
1.62718e-16
-5e-05
3.32576e-17
-5e-05
3.25238e-17
-5e-05
2.22644e-17
-5e-05
1.55959e-17
-5e-05
1.20296e-17
-5e-05
9.0601e-18
-5e-05
7.23262e-18
-5e-05
5.84338e-18
-5e-05
4.58643e-18
-5e-05
3.50732e-18
-5e-05
2.70096e-18
-5e-05
2.48224e-18
-5e-05
2.49241e-18
-5e-05
9.68556e-19
-1.42593e-18
-5e-05
-2.86169e-14
-5e-05
1.25701e-14
-5e-05
-3.17286e-15
-5e-05
1.18998e-15
-5e-05
-2.94365e-16
-5e-05
1.26071e-16
-5e-05
-1.2773e-17
-5e-05
2.10847e-17
-5e-05
6.1425e-18
-5e-05
7.21019e-18
-5e-05
4.64859e-18
-5e-05
3.85745e-18
-5e-05
3.02476e-18
-5e-05
2.3582e-18
-5e-05
1.78751e-18
-5e-05
1.36537e-18
-5e-05
1.31531e-18
-5e-05
1.46332e-18
-5e-05
6.66397e-19
-7.97385e-19
-5e-05
-5e-05
-5e-05
-5e-05
-5e-05
-5e-05
-5e-05
-5e-05
-5e-05
-5e-05
-5e-05
-5e-05
-5e-05
-5e-05
-5e-05
-5e-05
-5e-05
-5e-05
-5e-05
)
;

boundaryField
{
    movingWall
    {
        type            calculated;
        value           uniform -0;
    }
    fixedWalls
    {
        type            calculated;
        value           nonuniform List<scalar> 
60
(
5e-05
5e-05
5e-05
5e-05
5e-05
5e-05
5e-05
5e-05
5e-05
5e-05
5e-05
5e-05
5e-05
5e-05
5e-05
5e-05
5e-05
5e-05
5e-05
5e-05
-5e-05
-5e-05
-5e-05
-5e-05
-5e-05
-5e-05
-5e-05
-5e-05
-5e-05
-5e-05
-5e-05
-5e-05
-5e-05
-5e-05
-5e-05
-5e-05
-5e-05
-5e-05
-5e-05
-5e-05
0
0
0
0
0
0
0
0
0
0
0
0
0
0
0
0
0
0
0
0
)
;
    }
    frontAndBack
    {
        type            empty;
    }
}


// ************************************************************************* //
