/*--------------------------------*- C++ -*----------------------------------*\
| =========                 |                                                 |
| \\      /  F ield         | OpenFOAM: The Open Source CFD Toolbox           |
|  \\    /   O peration     | Version:  2506                                  |
|   \\  /    A nd           | Website:  www.openfoam.com                      |
|    \\/     M anipulation  |                                                 |
\*---------------------------------------------------------------------------*/
FoamFile
{
    version     2.0;
    format      ascii;
    arch        "LSB;label=32;scalar=64";
    class       volTensorField;
    location    "3.625";
    object      gradU;
}
// * * * * * * * * * * * * * * * * * * * * * * * * * * * * * * * * * * * * * //

dimensions      [0 0 -1 0 0 0 0];

internalField   nonuniform List<tensor> 
400
(
(3.82314e-07 1.40173e-05 0 -1.03799e-06 -7.58428e-08 0 0 0 0)
(-4.26805e-07 -1.72229e-05 0 2.25601e-07 2.74962e-08 0 0 0 0)
(7.62199e-08 3.97239e-06 0 -9.88331e-08 -4.16122e-09 0 0 0 0)
(-3.46628e-08 -9.42289e-07 0 2.17044e-08 1.83346e-09 0 0 0 0)
(4.89826e-09 2.1657e-07 0 -7.61224e-09 -1.15106e-10 0 0 0 0)
(-2.19405e-09 -5.06632e-08 0 2.2575e-09 1.04753e-10 0 0 0 0)
(4.03865e-10 1.17692e-08 0 -4.89843e-10 4.31122e-11 0 0 0 0)
(-1.31703e-10 -2.71029e-09 0 2.55004e-10 1.89224e-11 0 0 0 0)
(1.6778e-11 6.2565e-10 0 8.99888e-12 1.77142e-11 0 0 0 0)
(-1.77538e-11 -1.46039e-10 0 6.02274e-11 1.02398e-11 0 0 0 0)
(-6.58653e-12 3.19904e-11 0 3.33934e-11 9.08176e-12 0 0 0 0)
(-7.72494e-12 -8.05105e-12 0 3.11437e-11 7.48407e-12 0 0 0 0)
(-6.4239e-12 1.28842e-12 0 2.29038e-11 6.96092e-12 0 0 0 0)
(-5.58364e-12 -8.98806e-13 0 1.72117e-11 5.9877e-12 0 0 0 0)
(-4.41812e-12 -3.97693e-13 0 1.21702e-11 4.9078e-12 0 0 0 0)
(-3.71339e-12 -2.07376e-13 0 8.34836e-12 3.97161e-12 0 0 0 0)
(-4.14707e-12 -9.74622e-14 0 4.60786e-12 3.9488e-12 0 0 0 0)
(-4.36391e-12 -5.41711e-13 0 8.13152e-14 4.10263e-12 0 0 0 0)
(-4.33681e-13 -1.54503e-12 0 -3.55076e-12 1.66294e-12 0 0 0 0)
(2.30393e-12 1.25914e-13 0 -7.86047e-13 -2.42942e-12 0 0 0 0)
(-1.19471e-06 -1.40657e-05 0 1.8838e-06 2.21031e-07 0 0 0 0)
(1.36597e-06 1.72946e-05 0 -3.99387e-07 -7.9459e-08 0 0 0 0)
(-2.80116e-07 -3.99806e-06 0 1.74884e-07 1.79331e-08 0 0 0 0)
(1.25884e-07 9.46335e-07 0 -3.73294e-08 -5.91023e-09 0 0 0 0)
(-2.43452e-08 -2.18299e-07 0 1.34671e-08 1.55951e-09 0 0 0 0)
(9.31644e-09 5.08214e-08 0 -3.74044e-09 -3.63738e-10 0 0 0 0)
(-2.40633e-09 -1.1855e-08 0 9.85052e-10 1.2531e-10 0 0 0 0)
(6.30518e-10 2.68489e-09 0 -3.29245e-10 -9.39407e-12 0 0 0 0)
(-2.11528e-10 -6.34332e-10 0 7.6111e-11 1.76779e-11 0 0 0 0)
(4.21755e-11 1.37407e-10 0 -2.77556e-11 8.12753e-12 0 0 0 0)
(-2.24972e-11 -3.47461e-11 0 4.77049e-12 8.31741e-12 0 0 0 0)
(-2.79182e-12 5.93021e-12 0 -3.17129e-12 7.15204e-12 0 0 0 0)
(-7.53521e-12 -2.7848e-12 0 -3.52366e-13 6.72704e-12 0 0 0 0)
(-5.14996e-12 -1.15431e-12 0 -7.04731e-13 5.8304e-12 0 0 0 0)
(-4.41812e-12 -1.61839e-12 0 -4.06576e-13 4.81136e-12 0 0 0 0)
(-3.82181e-12 -7.51627e-13 0 -2.71051e-13 3.85736e-12 0 0 0 0)
(-4.11997e-12 2.28475e-13 0 -1.0842e-13 3.76186e-12 0 0 0 0)
(-3.82181e-12 -1.74415e-12 0 -2.71051e-14 4.13975e-12 0 0 0 0)
(-4.06576e-13 -4.98702e-12 0 8.13152e-14 1.43236e-12 0 0 0 0)
(2.00577e-12 6.40563e-13 0 1.0842e-13 -2.31493e-12 0 0 0 0)
(1.86673e-06 1.41589e-05 0 -1.52956e-06 -3.58444e-07 0 0 0 0)
(-2.13572e-06 -1.7426e-05 0 3.10905e-07 1.20112e-07 0 0 0 0)
(4.38277e-07 4.04594e-06 0 -1.37146e-07 -3.01187e-08 0 0 0 0)
(-1.9608e-07 -9.58663e-07 0 2.77122e-08 9.11443e-09 0 0 0 0)
(3.84873e-08 2.22117e-07 0 -1.04469e-08 -2.66197e-09 0 0 0 0)
(-1.46761e-08 -5.20974e-08 0 2.73146e-09 6.9054e-10 0 0 0 0)
(3.81501e-09 1.21235e-08 0 -7.94964e-10 -2.0896e-10 0 0 0 0)
(-1.04059e-09 -2.81792e-09 0 2.28333e-10 6.15738e-11 0 0 0 0)
(3.18268e-10 6.43171e-10 0 -7.21537e-11 -8.5107e-12 0 0 0 0)
(-8.91214e-11 -1.554e-10 0 1.35525e-11 1.12019e-11 0 0 0 0)
(1.80249e-11 3.10149e-11 0 -8.86335e-12 5.62605e-12 0 0 0 0)
(-1.28478e-11 -9.64142e-12 0 -1.00289e-12 6.73608e-12 0 0 0 0)
(-3.93023e-12 -3.32139e-14 0 -2.19551e-12 6.10511e-12 0 0 0 0)
(-5.66496e-12 -2.81449e-12 0 -1.11131e-12 5.46565e-12 0 0 0 0)
(-4.01155e-12 -2.37073e-12 0 -8.40257e-13 4.53342e-12 0 0 0 0)
(-3.41524e-12 -1.25688e-12 0 -5.14996e-13 3.69443e-12 0 0 0 0)
(-3.90313e-12 1.84927e-13 0 -4.06576e-13 3.55957e-12 0 0 0 0)
(-4.14707e-12 -2.87121e-12 0 -5.42101e-14 3.79806e-12 0 0 0 0)
(-3.25261e-13 -7.99971e-12 0 3.25261e-13 1.41105e-12 0 0 0 0)
(2.1413e-12 1.00848e-12 0 5.42101e-14 -2.16558e-12 0 0 0 0)
(-2.41336e-06 -1.4304e-05 0 1.19459e-06 4.92231e-07 0 0 0 0)
(2.75838e-06 1.76229e-05 0 -2.38893e-07 -1.5363e-07 0 0 0 0)
(-5.63309e-07 -4.10905e-06 0 1.06793e-07 3.70815e-08 0 0 0 0)
(2.52583e-07 9.73792e-07 0 -2.11687e-08 -1.10831e-08 0 0 0 0)
(-4.93259e-08 -2.26723e-07 0 8.10387e-09 2.89814e-09 0 0 0 0)
(1.89685e-08 5.32744e-08 0 -2.14108e-09 -8.10564e-10 0 0 0 0)
(-4.90943e-09 -1.2484e-08 0 5.9997e-10 2.17299e-10 0 0 0 0)
(1.35333e-09 2.88534e-09 0 -1.98409e-10 -5.97297e-11 0 0 0 0)
(-4.26335e-10 -6.84704e-10 0 4.55365e-11 2.021e-11 0 0 0 0)
(1.05466e-10 1.51543e-10 0 -1.97054e-11 3.90912e-13 0 0 0 0)
(-3.70797e-11 -3.9212e-11 0 1.00289e-12 6.65384e-12 0 0 0 0)
(3.93023e-12 6.40928e-12 0 -3.90313e-12 5.23006e-12 0 0 0 0)
(-7.67073e-12 -4.05523e-12 0 -1.68051e-12 5.6046e-12 0 0 0 0)
(-3.7676e-12 -2.726e-12 0 -1.68051e-12 4.9138e-12 0 0 0 0)
(-3.82181e-12 -3.38961e-12 0 -1.0571e-12 4.14343e-12 0 0 0 0)
(-3.44234e-12 -1.72548e-12 0 -7.86047e-13 3.3759e-12 0 0 0 0)
(-3.65918e-12 3.32099e-13 0 -4.60786e-13 3.26832e-12 0 0 0 0)
(-3.11708e-12 -3.89267e-12 0 -8.13152e-14 3.49912e-12 0 0 0 0)
(-2.1684e-13 -1.09507e-11 0 2.98156e-13 1.25929e-12 0 0 0 0)
(1.5992e-12 1.39509e-12 0 8.13152e-14 -1.96711e-12 0 0 0 0)
(2.82242e-06 1.44975e-05 0 -8.34607e-07 -6.15073e-07 0 0 0 0)
(-3.22352e-06 -1.78812e-05 0 1.61813e-07 1.81961e-07 0 0 0 0)
(6.56002e-07 4.18849e-06 0 -7.38138e-08 -4.39506e-08 0 0 0 0)
(-2.94769e-07 -9.92846e-07 0 1.39937e-08 1.25421e-08 0 0 0 0)
(5.75149e-08 2.32389e-07 0 -5.45633e-09 -3.32459e-09 0 0 0 0)
(-2.218e-08 -5.47782e-08 0 1.41914e-09 8.64812e-10 0 0 0 0)
(5.75763e-09 1.28743e-08 0 -3.95924e-10 -2.49911e-10 0 0 0 0)
(-1.59505e-09 -3.01501e-09 0 1.25686e-10 6.49691e-11 0 0 0 0)
(4.96971e-10 7.03292e-10 0 -3.52095e-11 -1.4932e-11 0 0 0 0)
(-1.33628e-10 -1.68956e-10 0 7.20994e-12 9.16621e-12 0 0 0 0)
(3.38271e-11 3.58541e-11 0 -5.55654e-12 3.42072e-12 0 0 0 0)
(-1.55854e-11 -1.06907e-11 0 -1.70762e-12 5.35107e-12 0 0 0 0)
(-1.65341e-12 -3.49478e-13 0 -2.35814e-12 4.87189e-12 0 0 0 0)
(-5.04154e-12 -4.27565e-12 0 -1.6263e-12 4.47454e-12 0 0 0 0)
(-3.11708e-12 -3.90862e-12 0 -1.30104e-12 3.69336e-12 0 0 0 0)
(-2.81893e-12 -2.13199e-12 0 -8.94467e-13 3.00942e-12 0 0 0 0)
(-3.1984e-12 3.08141e-13 0 -6.50521e-13 2.89916e-12 0 0 0 0)
(-3.38813e-12 -4.88024e-12 0 -1.89735e-13 3.01188e-12 0 0 0 0)
(-1.89735e-13 -1.34659e-11 0 4.60786e-13 1.07875e-12 0 0 0 0)
(1.78893e-12 1.7163e-12 0 1.0842e-13 -1.72574e-12 0 0 0 0)
(-3.08616e-06 -1.47371e-05 0 5.3198e-07 7.21631e-07 0 0 0 0)
(3.51917e-06 1.8194e-05 0 -9.85656e-08 -2.03765e-07 0 0 0 0)
(-7.11129e-07 -4.27847e-06 0 4.6615e-08 4.87398e-08 0 0 0 0)
(3.20941e-07 1.01442e-06 0 -8.14594e-09 -1.3514e-08 0 0 0 0)
(-6.19004e-08 -2.384e-07 0 3.39228e-09 3.45549e-09 0 0 0 0)
(2.40288e-08 5.63491e-08 0 -8.19169e-10 -8.9994e-10 0 0 0 0)
(-6.20283e-09 -1.32838e-08 0 2.44244e-10 2.47277e-10 0 0 0 0)
(1.71402e-09 3.12032e-09 0 -7.28042e-11 -5.97235e-11 0 0 0 0)
(-5.44812e-10 -7.40507e-10 0 1.91362e-11 2.12769e-11 0 0 0 0)
(1.35092e-10 1.69896e-10 0 -7.45389e-12 3.79957e-14 0 0 0 0)
(-4.60244e-11 -4.30271e-11 0 -4.60786e-13 5.96059e-12 0 0 0 0)
(7.15573e-12 7.86045e-12 0 -2.76472e-12 4.3588e-12 0 0 0 0)
(-7.58942e-12 -4.93176e-12 0 -1.89735e-12 4.62983e-12 0 0 0 0)
(-2.71051e-12 -3.90453e-12 0 -1.70762e-12 3.94359e-12 0 0 0 0)
(-3.08998e-12 -4.85472e-12 0 -1.21973e-12 3.26853e-12 0 0 0 0)
(-2.76472e-12 -2.51968e-12 0 -9.21572e-13 2.6094e-12 0 0 0 0)
(-2.92735e-12 3.34558e-13 0 -5.69206e-13 2.4631e-12 0 0 0 0)
(-1.97867e-12 -5.71309e-12 0 -2.71051e-14 2.5146e-12 0 0 0 0)
(0 -1.56883e-11 0 4.33681e-13 8.43625e-13 0 0 0 0)
(1.02999e-12 2.04208e-12 0 1.35525e-13 -1.44543e-12 0 0 0 0)
(3.25583e-06 1.50154e-05 0 -2.68761e-07 -8.10486e-07 0 0 0 0)
(-3.70888e-06 -1.85541e-05 0 4.47877e-08 2.2157e-07 0 0 0 0)
(7.46422e-07 4.37874e-06 0 -2.27e-08 -5.26403e-08 0 0 0 0)
(-3.37992e-07 -1.03813e-06 0 3.43435e-09 1.42939e-08 0 0 0 0)
(6.48416e-08 2.45003e-07 0 -1.48826e-09 -3.56023e-09 0 0 0 0)
(-2.5328e-08 -5.79864e-08 0 3.64292e-10 9.30888e-10 0 0 0 0)
(6.50397e-09 1.37146e-08 0 -8.83625e-11 -2.35934e-10 0 0 0 0)
(-1.82016e-09 -3.24101e-09 0 3.38813e-11 6.86802e-11 0 0 0 0)
(5.62321e-10 7.63053e-10 0 -7.31836e-12 -1.03851e-11 0 0 0 0)
(-1.53198e-10 -1.84272e-10 0 1.00289e-12 9.79264e-12 0 0 0 0)
(3.85434e-11 4.01749e-11 0 -2.6834e-12 3.84767e-12 0 0 0 0)
(-1.69949e-11 -1.20214e-11 0 -1.97867e-12 4.87518e-12 0 0 0 0)
(-6.23416e-13 -7.64688e-13 0 -2.08709e-12 4.0692e-12 0 0 0 0)
(-4.36391e-12 -5.63695e-12 0 -1.5992e-12 3.52533e-12 0 0 0 0)
(-2.38524e-12 -5.24281e-12 0 -1.24683e-12 2.81002e-12 0 0 0 0)
(-2.1413e-12 -2.93742e-12 0 -9.21572e-13 2.21324e-12 0 0 0 0)
(-2.33103e-12 2.13335e-13 0 -6.23416e-13 2.03277e-12 0 0 0 0)
(-2.41235e-12 -6.49972e-12 0 -1.0842e-13 1.966e-12 0 0 0 0)
(5.42101e-14 -1.7426e-11 0 5.42101e-13 6.3558e-13 0 0 0 0)
(1.19262e-12 2.31811e-12 0 1.0842e-13 -1.14844e-12 0 0 0 0)
(-3.31013e-06 -1.5326e-05 0 5.66242e-08 8.75845e-07 0 0 0 0)
(3.76523e-06 1.89519e-05 0 -3.06482e-09 -2.33075e-07 0 0 0 0)
(-7.52482e-07 -4.48575e-06 0 3.78685e-09 5.54083e-08 0 0 0 0)
(3.42152e-07 1.0635e-06 0 2.0711e-10 -1.45843e-08 0 0 0 0)
(-6.49705e-08 -2.51763e-07 0 1.01454e-10 3.65251e-09 0 0 0 0)
(2.54288e-08 5.96734e-08 0 2.05456e-11 -8.97781e-10 0 0 0 0)
(-6.53324e-09 -1.4146e-08 0 -3.08998e-12 2.51715e-10 0 0 0 0)
(1.79509e-09 3.34587e-09 0 3.41524e-12 -4.95687e-11 0 0 0 0)
(-5.77744e-10 -7.99395e-10 0 -1.27394e-12 2.32585e-11 0 0 0 0)
(1.39699e-10 1.84129e-10 0 -1.30104e-12 2.36788e-12 0 0 0 0)
(-4.89788e-11 -4.79446e-11 0 -2.24972e-12 6.30354e-12 0 0 0 0)
(7.69784e-12 8.08197e-12 0 -2.24972e-12 4.1716e-12 0 0 0 0)
(-7.20994e-12 -6.28162e-12 0 -2.08709e-12 3.82576e-12 0 0 0 0)
(-1.84314e-12 -5.1637e-12 0 -1.70762e-12 3.00712e-12 0 0 0 0)
(-2.33103e-12 -6.16681e-12 0 -1.19262e-12 2.36191e-12 0 0 0 0)
(-2.1684e-12 -3.29693e-12 0 -7.86047e-13 1.80815e-12 0 0 0 0)
(-2.08709e-12 8.73169e-14 0 -5.42101e-13 1.57879e-12 0 0 0 0)
(-8.94467e-13 -7.11028e-12 0 0 1.4593e-12 0 0 0 0)
(2.1684e-13 -1.88027e-11 0 6.23416e-13 4.23298e-13 0 0 0 0)
(4.06576e-13 2.55494e-12 0 1.35525e-13 -8.21831e-13 0 0 0 0)
(3.30939e-06 1.56582e-05 0 1.24486e-07 -9.18607e-07 0 0 0 0)
(-3.76172e-06 -1.93745e-05 0 -3.16761e-08 2.40414e-07 0 0 0 0)
(7.49693e-07 4.59723e-06 0 1.23048e-08 -5.70118e-08 0 0 0 0)
(-3.41677e-07 -1.08989e-06 0 -3.14749e-09 1.48613e-08 0 0 0 0)
(6.4655e-08 2.5869e-07 0 1.09399e-09 -3.62503e-09 0 0 0 0)
(-2.54326e-08 -6.13872e-08 0 -3.06911e-10 9.33272e-10 0 0 0 0)
(6.48689e-09 1.45628e-08 0 9.25638e-11 -2.1916e-10 0 0 0 0)
(-1.81837e-09 -3.46947e-09 0 -2.88127e-11 6.96456e-11 0 0 0 0)
(5.57659e-10 8.1499e-10 0 6.15285e-12 -5.85357e-12 0 0 0 0)
(-1.54201e-10 -2.01227e-10 0 -4.68917e-12 1.07648e-11 0 0 0 0)
(3.75947e-11 4.19786e-11 0 -1.97867e-12 4.48674e-12 0 0 0 0)
(-1.68322e-11 -1.44992e-11 0 -2.79182e-12 4.50131e-12 0 0 0 0)
(-5.42101e-14 -1.92917e-12 0 -2.24972e-12 3.27357e-12 0 0 0 0)
(-3.46945e-12 -7.1008e-12 0 -1.84314e-12 2.53944e-12 0 0 0 0)
(-1.51788e-12 -6.44178e-12 0 -1.38236e-12 1.85402e-12 0 0 0 0)
(-1.49078e-12 -3.72055e-12 0 -9.75782e-13 1.3937e-12 0 0 0 0)
(-1.51788e-12 -1.35511e-13 0 -5.69206e-13 1.13267e-12 0 0 0 0)
(-1.24683e-12 -7.65521e-12 0 0 8.76753e-13 0 0 0 0)
(1.89735e-13 -1.97071e-11 0 5.14996e-13 2.50498e-13 0 0 0 0)
(4.33681e-13 2.71664e-12 0 1.0842e-13 -4.94686e-13 0 0 0 0)
(-3.21732e-06 -1.60042e-05 0 -2.81273e-07 9.34437e-07 0 0 0 0)
(3.65305e-06 1.98135e-05 0 6.1339e-08 -2.41081e-07 0 0 0 0)
(-7.23954e-07 -4.7113e-06 0 -2.61262e-08 5.72656e-08 0 0 0 0)
(3.30941e-07 1.11689e-06 0 5.66094e-09 -1.46332e-08 0 0 0 0)
(-6.21299e-08 -2.65691e-07 0 -2.09316e-09 3.62701e-09 0 0 0 0)
(2.44273e-08 6.30792e-08 0 5.59367e-10 -8.6835e-10 0 0 0 0)
(-6.25522e-09 -1.50096e-08 0 -1.64609e-10 2.43527e-10 0 0 0 0)
(1.70873e-09 3.55917e-09 0 4.70002e-11 -4.29263e-11 0 0 0 0)
(-5.53594e-10 -8.58275e-10 0 -1.71846e-11 2.35744e-11 0 0 0 0)
(1.31568e-10 1.94469e-10 0 2.43945e-13 3.58107e-12 0 0 0 0)
(-4.71086e-11 -5.4208e-11 0 -4.68917e-12 6.19901e-12 0 0 0 0)
(7.45389e-12 6.8688e-12 0 -2.90024e-12 3.6742e-12 0 0 0 0)
(-6.26127e-12 -8.24348e-12 0 -2.6563e-12 2.86195e-12 0 0 0 0)
(-9.75782e-13 -6.58326e-12 0 -1.95156e-12 1.9456e-12 0 0 0 0)
(-1.43657e-12 -7.31255e-12 0 -1.40946e-12 1.3336e-12 0 0 0 0)
(-1.40946e-12 -4.01828e-12 0 -9.75782e-13 8.86063e-13 0 0 0 0)
(-1.13841e-12 -4.29629e-13 0 -5.96311e-13 6.12976e-13 0 0 0 0)
(2.98156e-13 -7.99245e-12 0 5.42101e-14 3.75687e-13 0 0 0 0)
(3.25261e-13 -2.01741e-11 0 5.42101e-13 4.97658e-14 0 0 0 0)
(-2.71051e-13 2.79913e-12 0 1.35525e-13 -1.85042e-13 0 0 0 0)
(3.08946e-06 1.63515e-05 0 4.15946e-07 -9.27221e-07 0 0 0 0)
(-3.50657e-06 -2.02517e-05 0 -8.65488e-08 2.37009e-07 0 0 0 0)
(6.94015e-07 4.82368e-06 0 3.78705e-08 -5.61718e-08 0 0 0 0)
(-3.17644e-07 -1.14352e-06 0 -7.76947e-09 1.4325e-08 0 0 0 0)
(5.95535e-08 2.72455e-07 0 2.91003e-09 -3.46072e-09 0 0 0 0)
(-2.3504e-08 -6.47707e-08 0 -7.78132e-10 8.81964e-10 0 0 0 0)
(5.97455e-09 1.53882e-08 0 2.10281e-10 -2.00201e-10 0 0 0 0)
(-1.67095e-09 -3.68942e-09 0 -7.54063e-11 6.55417e-11 0 0 0 0)
(5.10903e-10 8.61497e-10 0 1.17094e-11 -4.11389e-12 0 0 0 0)
(-1.41678e-10 -2.18602e-10 0 -1.07878e-11 1.00073e-11 0 0 0 0)
(3.44505e-11 4.20717e-11 0 -3.14419e-12 3.86322e-12 0 0 0 0)
(-1.48265e-11 -1.78363e-11 0 -4.25549e-12 3.3918e-12 0 0 0 0)
(8.40257e-13 -3.65777e-12 0 -2.84603e-12 1.96782e-12 0 0 0 0)
(-2.22261e-12 -8.62914e-12 0 -2.22261e-12 1.23998e-12 0 0 0 0)
(-5.69206e-13 -7.50132e-12 0 -1.38236e-12 7.12435e-13 0 0 0 0)
(-5.96311e-13 -4.44117e-12 0 -8.67362e-13 3.88659e-13 0 0 0 0)
(-4.87891e-13 -6.45886e-13 0 -4.87891e-13 1.38468e-13 0 0 0 0)
(-1.0842e-13 -8.21842e-12 0 8.13152e-14 -1.25917e-13 0 0 0 0)
(1.89735e-13 -2.02678e-11 0 5.42101e-13 -7.66717e-14 0 0 0 0)
(-1.89735e-13 2.85192e-12 0 1.0842e-13 1.05289e-13 0 0 0 0)
(-2.88792e-06 -1.66945e-05 0 -5.34127e-07 8.95581e-07 0 0 0 0)
(3.27498e-06 2.06845e-05 0 1.08692e-07 -2.26809e-07 0 0 0 0)
(-6.45174e-07 -4.93399e-06 0 -4.82675e-08 5.38393e-08 0 0 0 0)
(2.95981e-07 1.1696e-06 0 9.60356e-09 -1.35283e-08 0 0 0 0)
(-5.51386e-08 -2.79134e-07 0 -3.68439e-09 3.32818e-09 0 0 0 0)
(2.17275e-08 6.63398e-08 0 9.41955e-10 -7.88325e-10 0 0 0 0)
(-5.55239e-09 -1.58261e-08 0 -2.82326e-10 2.18261e-10 0 0 0 0)
(1.5101e-09 3.75526e-09 0 7.43221e-11 -3.79183e-11 0 0 0 0)
(-4.89002e-10 -9.1381e-10 0 -3.08727e-11 2.04833e-11 0 0 0 0)
(1.16687e-10 2.02446e-10 0 -7.86047e-13 2.49769e-12 0 0 0 0)
(-4.05221e-11 -6.08236e-11 0 -7.88757e-12 4.34816e-12 0 0 0 0)
(7.77915e-12 4.9734e-12 0 -4.20128e-12 1.89501e-12 0 0 0 0)
(-4.20128e-12 -1.03953e-11 0 -3.79471e-12 1.04258e-12 0 0 0 0)
(4.60786e-13 -7.83864e-12 0 -2.46656e-12 3.07342e-13 0 0 0 0)
(-1.0842e-13 -8.16388e-12 0 -1.65341e-12 -2.04321e-14 0 0 0 0)
(-4.87891e-13 -4.59225e-12 0 -1.0571e-12 -1.71485e-13 0 0 0 0)
(-2.43945e-13 -9.44205e-13 0 -6.23416e-13 -3.76355e-13 0 0 0 0)
(1.32815e-12 -8.20759e-12 0 5.42101e-14 -5.77115e-13 0 0 0 0)
(3.79471e-13 -1.99429e-11 0 5.42101e-13 -2.16125e-13 0 0 0 0)
(-9.21572e-13 2.77051e-12 0 8.13152e-14 3.92476e-13 0 0 0 0)
(2.66403e-06 1.70203e-05 0 6.30728e-07 -8.44586e-07 0 0 0 0)
(-3.02071e-06 -2.10934e-05 0 -1.26509e-07 2.12568e-07 0 0 0 0)
(5.94927e-07 5.03696e-06 0 5.65592e-08 -5.03641e-08 0 0 0 0)
(-2.73061e-07 -1.19404e-06 0 -1.10962e-08 1.26576e-08 0 0 0 0)
(5.08919e-08 2.85195e-07 0 4.21538e-09 -3.04231e-09 0 0 0 0)
(-2.01019e-08 -6.78806e-08 0 -1.11871e-09 7.67118e-10 0 0 0 0)
(5.10684e-09 1.61386e-08 0 2.90105e-10 -1.73135e-10 0 0 0 0)
(-1.41952e-09 -3.8872e-09 0 -1.10914e-10 5.47405e-11 0 0 0 0)
(4.35768e-10 9.01913e-10 0 1.33086e-11 -5.03517e-12 0 0 0 0)
(-1.18693e-10 -2.34738e-10 0 -1.6778e-11 6.62317e-12 0 0 0 0)
(3.10353e-11 4.1469e-11 0 -5.25838e-12 1.30775e-12 0 0 0 0)
(-1.07336e-11 -2.11419e-11 0 -6.26127e-12 8.57909e-13 0 0 0 0)
(2.57498e-12 -5.24543e-12 0 -4.03865e-12 -3.19697e-13 0 0 0 0)
(-8.13152e-14 -9.69215e-12 0 -3.03577e-12 -7.10396e-13 0 0 0 0)
(8.67362e-13 -7.98014e-12 0 -1.92446e-12 -8.46444e-13 0 0 0 0)
(4.60786e-13 -4.79709e-12 0 -1.27394e-12 -8.09037e-13 0 0 0 0)
(5.69206e-13 -1.05152e-12 0 -5.69206e-13 -9.26552e-13 0 0 0 0)
(1.0571e-12 -8.05819e-12 0 -5.42101e-14 -1.14319e-12 0 0 0 0)
(2.1684e-13 -1.92982e-11 0 4.33681e-13 -3.60265e-13 0 0 0 0)
(-7.86047e-13 2.67557e-12 0 1.0842e-13 6.87241e-13 0 0 0 0)
(-2.3837e-06 -1.73265e-05 0 -7.15887e-07 7.74216e-07 0 0 0 0)
(2.70081e-06 2.14788e-05 0 1.42483e-07 -1.93465e-07 0 0 0 0)
(-5.29761e-07 -5.1339e-06 0 -6.40753e-08 4.58865e-08 0 0 0 0)
(2.43637e-07 1.21692e-06 0 1.23932e-08 -1.13902e-08 0 0 0 0)
(-4.51612e-08 -2.91025e-07 0 -4.80971e-09 2.78448e-09 0 0 0 0)
(1.78023e-08 6.92089e-08 0 1.20883e-09 -6.56382e-10 0 0 0 0)
(-4.54465e-09 -1.65384e-08 0 -3.67002e-10 1.76276e-10 0 0 0 0)
(1.23333e-09 3.92336e-09 0 9.01243e-11 -3.40131e-11 0 0 0 0)
(-3.94839e-10 -9.61927e-10 0 -4.26091e-11 1.32523e-11 0 0 0 0)
(9.81745e-11 2.08789e-10 0 -3.14419e-12 -1.15915e-12 0 0 0 0)
(-3.00053e-11 -6.65888e-11 0 -1.11402e-11 4.35585e-13 0 0 0 0)
(8.97177e-12 3.34595e-12 0 -5.93601e-12 -1.30562e-12 0 0 0 0)
(-9.48677e-13 -1.19636e-11 0 -4.87891e-12 -1.77867e-12 0 0 0 0)
(2.57498e-12 -8.36539e-12 0 -3.1984e-12 -1.9467e-12 0 0 0 0)
(1.65341e-12 -8.26252e-12 0 -2.1413e-12 -1.77965e-12 0 0 0 0)
(8.13152e-13 -4.67236e-12 0 -1.30104e-12 -1.54721e-12 0 0 0 0)
(1.00289e-12 -1.27836e-12 0 -7.58942e-13 -1.56458e-12 0 0 0 0)
(2.35814e-12 -7.6413e-12 0 -2.71051e-14 -1.69365e-12 0 0 0 0)
(4.60786e-13 -1.81125e-11 0 6.23416e-13 -5.67814e-13 0 0 0 0)
(-1.43657e-12 2.44354e-12 0 1.35525e-13 1.03289e-12 0 0 0 0)
(2.09062e-06 1.7601e-05 0 7.76866e-07 -6.88796e-07 0 0 0 0)
(-2.3689e-06 -2.18217e-05 0 -1.53362e-07 1.71081e-07 0 0 0 0)
(4.64837e-07 5.21903e-06 0 6.91994e-08 -4.04989e-08 0 0 0 0)
(-2.13795e-07 -1.23714e-06 0 -1.33075e-08 1.00549e-08 0 0 0 0)
(3.97075e-08 2.95928e-07 0 5.08274e-09 -2.40175e-09 0 0 0 0)
(-1.56592e-08 -7.04888e-08 0 -1.34964e-09 5.97623e-10 0 0 0 0)
(3.98816e-09 1.6761e-08 0 3.37512e-10 -1.37614e-10 0 0 0 0)
(-1.09513e-09 -4.05022e-09 0 -1.37043e-10 3.69025e-11 0 0 0 0)
(3.42499e-10 9.34767e-10 0 1.20346e-11 -8.98354e-12 0 0 0 0)
(-8.72783e-11 -2.47554e-10 0 -2.21719e-11 -5.61344e-15 0 0 0 0)
(2.82435e-11 4.13226e-11 0 -7.53521e-12 -3.40706e-12 0 0 0 0)
(-4.44523e-12 -2.33561e-11 0 -7.96889e-12 -3.3255e-12 0 0 0 0)
(5.28549e-12 -5.88652e-12 0 -5.01444e-12 -3.6565e-12 0 0 0 0)
(2.62919e-12 -9.69314e-12 0 -3.55076e-12 -3.37914e-12 0 0 0 0)
(2.81893e-12 -7.58065e-12 0 -2.30393e-12 -2.8792e-12 0 0 0 0)
(1.78893e-12 -4.58202e-12 0 -1.40946e-12 -2.34592e-12 0 0 0 0)
(1.87025e-12 -1.19796e-12 0 -7.58942e-13 -2.22927e-12 0 0 0 0)
(2.46656e-12 -7.06143e-12 0 -1.35525e-13 -2.36016e-12 0 0 0 0)
(4.60786e-13 -1.65717e-11 0 4.60786e-13 -8.45905e-13 0 0 0 0)
(-1.5992e-12 2.21049e-12 0 1.6263e-13 1.39081e-12 0 0 0 0)
(-1.7602e-06 -1.78442e-05 0 -8.28483e-07 5.90059e-07 0 0 0 0)
(1.99314e-06 2.21271e-05 0 1.62901e-07 -1.4578e-07 0 0 0 0)
(-3.89706e-07 -5.29492e-06 0 -7.37556e-08 3.45216e-08 0 0 0 0)
(1.79521e-07 1.25502e-06 0 1.4035e-08 -8.45876e-09 0 0 0 0)
(-3.32033e-08 -3.00482e-07 0 -5.49184e-09 2.06121e-09 0 0 0 0)
(1.30571e-08 7.14731e-08 0 1.35856e-09 -4.83539e-10 0 0 0 0)
(-3.332e-09 -1.70992e-08 0 -4.2124e-10 1.19098e-10 0 0 0 0)
(9.0783e-10 4.05199e-09 0 9.50845e-11 -3.34473e-11 0 0 0 0)
(-2.79941e-10 -9.98835e-10 0 -5.12014e-11 5.05493e-13 0 0 0 0)
(7.86047e-11 2.14366e-10 0 -5.3668e-12 -8.63192e-12 0 0 0 0)
(-1.58565e-11 -6.99087e-11 0 -1.32544e-11 -6.37875e-12 0 0 0 0)
(1.14925e-11 3.09651e-12 0 -6.88468e-12 -6.52821e-12 0 0 0 0)
(3.52366e-12 -1.20173e-11 0 -5.44812e-12 -5.94974e-12 0 0 0 0)
(5.28549e-12 -7.58809e-12 0 -3.55076e-12 -5.13834e-12 0 0 0 0)
(3.71339e-12 -7.22929e-12 0 -2.30393e-12 -4.1722e-12 0 0 0 0)
(2.35814e-12 -4.02243e-12 0 -1.57209e-12 -3.28782e-12 0 0 0 0)
(2.35814e-12 -1.29261e-12 0 -8.67362e-13 -2.99931e-12 0 0 0 0)
(3.55076e-12 -6.25793e-12 0 -1.0842e-13 -2.98027e-12 0 0 0 0)
(7.31836e-13 -1.43615e-11 0 4.06576e-13 -1.09387e-12 0 0 0 0)
(-2.05998e-12 1.89863e-12 0 8.13152e-14 1.6508e-12 0 0 0 0)
(1.42504e-06 1.80453e-05 0 8.63734e-07 -4.81133e-07 0 0 0 0)
(-1.61417e-06 -2.23773e-05 0 -1.69221e-07 1.17969e-07 0 0 0 0)
(3.15971e-07 5.35636e-06 0 7.6775e-08 -2.77813e-08 0 0 0 0)
(-1.45531e-07 -1.2696e-06 0 -1.46028e-08 6.92889e-09 0 0 0 0)
(2.70311e-08 3.03904e-07 0 5.5718e-09 -1.63331e-09 0 0 0 0)
(-1.05886e-08 -7.24309e-08 0 -1.49734e-09 4.0011e-10 0 0 0 0)
(2.72471e-09 1.72111e-08 0 3.54534e-10 -1.09629e-10 0 0 0 0)
(-7.2506e-10 -4.16881e-09 0 -1.53821e-10 1.06013e-11 0 0 0 0)
(2.41994e-10 9.59583e-10 0 1.07336e-11 -1.95357e-11 0 0 0 0)
(-4.93041e-11 -2.54439e-10 0 -2.39338e-11 -1.03616e-11 0 0 0 0)
(2.67798e-11 4.34263e-11 0 -7.39968e-12 -1.07536e-11 0 0 0 0)
(3.30682e-12 -2.29271e-11 0 -7.58942e-12 -8.77554e-12 0 0 0 0)
(8.5923e-12 -4.49665e-12 0 -4.36391e-12 -7.77349e-12 0 0 0 0)
(5.74627e-12 -7.9156e-12 0 -3.00866e-12 -6.3249e-12 0 0 0 0)
(4.87891e-12 -5.73013e-12 0 -1.76183e-12 -5.00716e-12 0 0 0 0)
(3.27971e-12 -3.40913e-12 0 -8.94467e-13 -3.84401e-12 0 0 0 0)
(3.25261e-12 -8.90408e-13 0 -2.71051e-13 -3.4802e-12 0 0 0 0)
(3.71339e-12 -5.156e-12 0 1.0842e-13 -3.41101e-12 0 0 0 0)
(6.50521e-13 -1.19406e-11 0 1.89735e-13 -1.17254e-12 0 0 0 0)
(-2.05998e-12 1.65356e-12 0 0 1.78155e-12 0 0 0 0)
(-1.06569e-06 -1.82074e-05 0 -8.5392e-07 3.65505e-07 0 0 0 0)
(1.20618e-06 2.25804e-05 0 1.65131e-07 -8.91302e-08 0 0 0 0)
(-2.35089e-07 -5.40596e-06 0 -7.65205e-08 2.08772e-08 0 0 0 0)
(1.08317e-07 1.28116e-06 0 1.42129e-08 -4.79999e-09 0 0 0 0)
(-2.00979e-08 -3.07011e-07 0 -5.79921e-09 1.10935e-09 0 0 0 0)
(7.83978e-09 7.29967e-08 0 1.3874e-09 -2.6943e-10 0 0 0 0)
(-1.98851e-09 -1.74887e-08 0 -4.56612e-10 2.27648e-11 0 0 0 0)
(5.64083e-10 4.14209e-09 0 9.69277e-11 -3.57983e-11 0 0 0 0)
(-1.50081e-10 -1.0198e-09 0 -5.38577e-11 -1.82196e-11 0 0 0 0)
(6.04443e-11 2.23148e-10 0 -3.27971e-12 -1.65224e-11 0 0 0 0)
(4.60786e-13 -6.83227e-11 0 -1.1872e-11 -1.30723e-11 0 0 0 0)
(1.46096e-11 6.07658e-12 0 -5.23128e-12 -1.08138e-11 0 0 0 0)
(8.0231e-12 -9.56661e-12 0 -4.49944e-12 -9.08866e-12 0 0 0 0)
(7.91468e-12 -4.82177e-12 0 -2.57498e-12 -7.3353e-12 0 0 0 0)
(5.80048e-12 -4.7484e-12 0 -1.70762e-12 -5.69555e-12 0 0 0 0)
(3.87602e-12 -2.49546e-12 0 -1.0571e-12 -4.39862e-12 0 0 0 0)
(3.41524e-12 -8.59611e-13 0 -7.58942e-13 -3.89126e-12 0 0 0 0)
(4.01155e-12 -3.95028e-12 0 0 -3.48281e-12 0 0 0 0)
(6.23416e-13 -9.16898e-12 0 5.14996e-13 -8.39728e-13 0 0 0 0)
(-2.27682e-12 1.28963e-12 0 8.13152e-14 1.95344e-12 0 0 0 0)
(7.3625e-07 1.83217e-05 0 8.96433e-07 -2.64815e-07 0 0 0 0)
(-8.36772e-07 -2.27219e-05 0 -1.57921e-07 8.62943e-08 0 0 0 0)
(1.65053e-07 5.44069e-06 0 7.15318e-08 -2.15456e-08 0 0 0 0)
(-7.48101e-08 -1.28937e-06 0 -1.19129e-08 6.05032e-09 0 0 0 0)
(1.42056e-08 3.08434e-07 0 4.48673e-09 -1.82833e-09 0 0 0 0)
(-5.24607e-09 -7.35175e-08 0 -1.18755e-09 3.71256e-10 0 0 0 0)
(1.43426e-09 1.74447e-08 0 2.36546e-10 -1.81187e-10 0 0 0 0)
(-3.22252e-10 -4.2098e-09 0 -1.11863e-10 -4.71876e-12 0 0 0 0)
(1.41732e-10 9.78859e-10 0 5.42101e-12 -3.78137e-11 0 0 0 0)
(-7.26415e-12 -2.49291e-10 0 -1.64799e-11 -1.92775e-11 0 0 0 0)
(2.48282e-11 4.91349e-11 0 -5.80048e-12 -1.76461e-11 0 0 0 0)
(1.06794e-11 -1.89435e-11 0 -5.99022e-12 -1.35007e-11 0 0 0 0)
(1.12486e-11 -1.01817e-12 0 -3.93023e-12 -1.12745e-11 0 0 0 0)
(8.51099e-12 -4.52249e-12 0 -3.17129e-12 -8.91292e-12 0 0 0 0)
(6.451e-12 -2.79345e-12 0 -2.46656e-12 -6.87921e-12 0 0 0 0)
(4.22839e-12 -1.60484e-12 0 -2.24972e-12 -5.34238e-12 0 0 0 0)
(4.25549e-12 2.54055e-14 0 -1.68051e-12 -4.66775e-12 0 0 0 0)
(4.98733e-12 -2.10446e-12 0 -3.52366e-13 -4.11637e-12 0 0 0 0)
(7.58942e-13 -6.50437e-12 0 7.31836e-13 -1.20864e-12 0 0 0 0)
(-2.6834e-12 5.39844e-13 0 3.52366e-13 2.51416e-12 0 0 0 0)
(-3.27175e-07 -1.83859e-05 0 -4.9057e-07 1.14468e-07 0 0 0 0)
(3.81283e-07 2.28237e-05 0 8.14954e-08 -5.02806e-08 0 0 0 0)
(-8.90805e-08 -5.48621e-06 0 -3.5081e-08 1.26914e-08 0 0 0 0)
(4.12723e-08 1.30088e-06 0 5.52301e-09 -4.75991e-09 0 0 0 0)
(-9.37249e-09 -3.1269e-07 0 -1.54325e-09 1.17746e-09 0 0 0 0)
(3.58963e-09 7.46439e-08 0 6.89932e-10 -5.04286e-10 0 0 0 0)
(-9.12844e-10 -1.78646e-08 0 1.13164e-10 5.10922e-11 0 0 0 0)
(3.32931e-10 4.28546e-09 0 1.68539e-10 -8.4339e-11 0 0 0 0)
(-5.46709e-11 -1.03436e-09 0 1.02538e-10 -2.457e-11 0 0 0 0)
(4.91686e-11 2.43316e-10 0 8.13965e-11 -2.88408e-11 0 0 0 0)
(1.09775e-11 -6.25458e-11 0 6.06069e-11 -1.85943e-11 0 0 0 0)
(1.64799e-11 1.24482e-11 0 4.56449e-11 -1.54298e-11 0 0 0 0)
(1.08691e-11 -4.97884e-12 0 3.34747e-11 -1.2099e-11 0 0 0 0)
(9.40545e-12 -4.26497e-13 0 2.35001e-11 -9.43279e-12 0 0 0 0)
(6.66784e-12 -1.17786e-12 0 1.55312e-11 -7.15006e-12 0 0 0 0)
(4.71628e-12 -2.84e-13 0 1.03812e-11 -5.46147e-12 0 0 0 0)
(5.28549e-12 3.66395e-13 0 6.69495e-12 -5.26122e-12 0 0 0 0)
(6.4239e-12 -4.91171e-13 0 7.86047e-13 -5.85327e-12 0 0 0 0)
(1.30104e-12 -2.53845e-12 0 -4.71628e-12 -2.66559e-12 0 0 0 0)
(-3.33392e-12 -1.58948e-14 0 -1.30104e-12 3.18954e-12 0 0 0 0)
)
;

boundaryField
{
    movingWall
    {
        type            extrapolatedCalculated;
        value           nonuniform List<tensor> 
20
(
(-3.27175e-07 -1.83859e-05 0 1.70624e-06 9.6815e-05 0 0 0 0)
(3.81283e-07 2.28237e-05 0 -3.97545e-07 -2.32715e-05 0 0 0 0)
(-8.90805e-08 -5.48621e-06 0 1.81114e-07 5.52025e-06 0 0 0 0)
(4.12723e-08 1.30088e-06 0 -4.12224e-08 -1.32664e-06 0 0 0 0)
(-9.37249e-09 -3.1269e-07 0 1.60244e-08 3.16732e-07 0 0 0 0)
(3.58963e-09 7.46439e-08 0 -3.7323e-09 -7.5876e-08 0 0 0 0)
(-9.12844e-10 -1.78646e-08 0 1.66578e-09 1.81566e-08 0 0 0 0)
(3.32931e-10 4.28546e-09 0 -8.10019e-11 -4.41748e-09 0 0 0 0)
(-5.46709e-11 -1.03436e-09 0 3.34133e-10 1.01474e-09 0 0 0 0)
(4.91686e-11 2.43316e-10 0 1.37668e-10 -2.8005e-10 0 0 0 0)
(1.09775e-11 -6.25458e-11 0 1.3749e-10 4.14737e-11 0 0 0 0)
(1.64799e-11 1.24482e-11 0 9.37028e-11 -2.98663e-11 0 0 0 0)
(1.08691e-11 -4.97884e-12 0 7.1676e-11 -8.31894e-12 0 0 0 0)
(9.40545e-12 -4.26497e-13 0 5.01821e-11 -9.95096e-12 0 0 0 0)
(6.66784e-12 -1.17786e-12 0 3.41061e-11 -6.61295e-12 0 0 0 0)
(4.71628e-12 -2.84e-13 0 2.33591e-11 -5.23951e-12 0 0 0 0)
(5.28549e-12 3.66395e-13 0 1.54543e-11 -5.47695e-12 0 0 0 0)
(6.4239e-12 -4.91171e-13 0 2.13163e-12 -6.70509e-12 0 0 0 0)
(1.30104e-12 -2.53845e-12 0 -1.02585e-11 -3.51227e-12 0 0 0 0)
(-3.33392e-12 -1.58948e-14 0 -3.10862e-12 3.44869e-12 0 0 0 0)
)
;
    }
    fixedWalls
    {
        type            extrapolatedCalculated;
        value           nonuniform List<tensor> 
60
(
(1.85532e-06 7.28749e-05 0 -1.03799e-06 -7.58428e-08 0 0 0 0)
(-6.0073e-06 -7.31783e-05 0 1.8838e-06 2.21031e-07 0 0 0 0)
(9.39052e-06 7.37591e-05 0 -1.52956e-06 -3.58444e-07 0 0 0 0)
(-1.21255e-05 -7.46121e-05 0 1.19459e-06 4.92231e-07 0 0 0 0)
(1.41689e-05 7.5728e-05 0 -8.34607e-07 -6.15073e-07 0 0 0 0)
(-1.5464e-05 -7.70724e-05 0 5.3198e-07 7.21631e-07 0 0 0 0)
(1.62968e-05 7.86145e-05 0 -2.68761e-07 -8.10486e-07 0 0 0 0)
(-1.6539e-05 -8.03143e-05 0 5.66242e-08 8.75845e-07 0 0 0 0)
(1.65233e-05 8.21179e-05 0 1.24486e-07 -9.18607e-07 0 0 0 0)
(-1.60411e-05 -8.39887e-05 0 -2.81273e-07 9.34437e-07 0 0 0 0)
(1.53982e-05 8.58556e-05 0 4.15946e-07 -9.27221e-07 0 0 0 0)
(-1.43773e-05 -8.76976e-05 0 -5.34127e-07 8.95581e-07 0 0 0 0)
(1.32617e-05 8.9438e-05 0 6.30728e-07 -8.44586e-07 0 0 0 0)
(-1.18544e-05 -9.1076e-05 0 -7.15887e-07 7.74216e-07 0 0 0 0)
(1.03981e-05 9.25348e-05 0 7.76866e-07 -6.88796e-07 0 0 0 0)
(-8.74691e-06 -9.38312e-05 0 -8.28483e-07 5.90059e-07 0 0 0 0)
(7.08421e-06 9.48951e-05 0 8.63734e-07 -4.81133e-07 0 0 0 0)
(-5.29198e-06 -9.57557e-05 0 -8.5392e-07 3.65505e-07 0 0 0 0)
(3.66853e-06 9.63571e-05 0 8.96433e-07 -2.64815e-07 0 0 0 0)
(-1.70624e-06 -9.6815e-05 0 -4.9057e-07 1.14468e-07 0 0 0 0)
(1.68754e-12 2.49056e-12 0 -7.86047e-13 -2.42942e-12 0 0 0 0)
(1.42109e-12 7.22711e-12 0 1.0842e-13 -2.31493e-12 0 0 0 0)
(1.33227e-12 1.17503e-11 0 5.42101e-14 -2.16558e-12 0 0 0 0)
(1.06581e-12 1.58894e-11 0 8.13152e-14 -1.96711e-12 0 0 0 0)
(1.06581e-12 1.96187e-11 0 1.0842e-13 -1.72574e-12 0 0 0 0)
(7.10543e-13 2.27924e-11 0 1.35525e-13 -1.44543e-12 0 0 0 0)
(5.32907e-13 2.54004e-11 0 1.0842e-13 -1.14844e-12 0 0 0 0)
(1.77636e-13 2.73861e-11 0 1.35525e-13 -8.21831e-13 0 0 0 0)
(0 2.86878e-11 0 1.0842e-13 -4.94686e-13 0 0 0 0)
(-2.66454e-13 2.93649e-11 0 1.35525e-13 -1.85042e-13 0 0 0 0)
(-4.44089e-13 2.94279e-11 0 1.0842e-13 1.05289e-13 0 0 0 0)
(-7.10543e-13 2.89437e-11 0 8.13152e-14 3.92476e-13 0 0 0 0)
(-7.99361e-13 2.7858e-11 0 1.0842e-13 6.87241e-13 0 0 0 0)
(-1.11022e-12 2.61948e-11 0 1.35525e-13 1.03289e-12 0 0 0 0)
(-1.42109e-12 2.37264e-11 0 1.6263e-13 1.39081e-12 0 0 0 0)
(-1.73195e-12 2.06315e-11 0 8.13152e-14 1.6508e-12 0 0 0 0)
(-1.73195e-12 1.71232e-11 0 0 1.78155e-12 0 0 0 0)
(-1.73195e-12 1.35053e-11 0 8.13152e-14 1.95344e-12 0 0 0 0)
(-2.08722e-12 9.30947e-12 0 3.52366e-13 2.51416e-12 0 0 0 0)
(-3.10862e-12 3.44869e-12 0 -1.30104e-12 3.18954e-12 0 0 0 0)
(3.82314e-07 1.40173e-05 0 1.85532e-06 7.28749e-05 0 0 0 0)
(-4.26805e-07 -1.72229e-05 0 -3.26069e-07 -1.68056e-05 0 0 0 0)
(7.62199e-08 3.97239e-06 0 1.48103e-07 3.98328e-06 0 0 0 0)
(-3.46628e-08 -9.42289e-07 0 -2.11892e-08 -9.15988e-07 0 0 0 0)
(4.89826e-09 2.1657e-07 0 9.45186e-09 2.14119e-07 0 0 0 0)
(-2.19405e-09 -5.06632e-08 0 -1.59597e-09 -4.97067e-08 0 0 0 0)
(4.03865e-10 1.17692e-08 0 6.75682e-10 1.14661e-08 0 0 0 0)
(-1.31703e-10 -2.71029e-09 0 1.94067e-11 -2.63004e-09 0 0 0 0)