/*--------------------------------*- C++ -*----------------------------------*\
| =========                 |                                                 |
| \\      /  F ield         | OpenFOAM: The Open Source CFD Toolbox           |
|  \\    /   O peration     | Version:  2506                                  |
|   \\  /    A nd           | Website:  www.openfoam.com                      |
|    \\/     M anipulation  |                                                 |
\*---------------------------------------------------------------------------*/
FoamFile
{
    version     2.0;
    format      ascii;
    arch        "LSB;label=32;scalar=64";
    class       volScalarField;
    location    "3.625";
    object      Lambda2Field;
}
// * * * * * * * * * * * * * * * * * * * * * * * * * * * * * * * * * * * * * //

dimensions      [0 0 -2 0 0 0 0];

internalField   nonuniform List<scalar> 
400
(
-1.44038e-11
-3.70334e-12
-3.86795e-13
-1.92503e-14
-1.62459e-15
-1.09558e-16
-5.60193e-18
-6.7379e-19
5.91165e-21
-8.48036e-21
1.11165e-21
-1.91065e-22
7.07762e-23
1.57071e-23
1.46798e-23
1.2058e-23
1.51439e-23
1.67875e-23
5.6741e-24
5.20912e-24
-2.50696e-11
-5.04137e-12
-6.20732e-13
-1.94795e-14
-2.34717e-15
-1.03298e-16
-5.88735e-18
-4.86435e-19
-3.53563e-21
-2.03503e-21
0
0
4.62343e-23
2.73356e-23
2.01778e-23
1.481e-23
1.41268e-23
1.46535e-23
0
4.09258e-24
-1.81723e-11
-8.56539e-13
-3.628e-13
0
-8.39172e-16
0
0
0
0
0
0
5.5044e-23
1.55197e-23
3.3001e-23
1.80845e-23
1.23111e-23
1.25954e-23
1.45809e-23
-6.10924e-25
4.63983e-24
-1.12631e-11
0
-1.215e-13
0
0
0
0
0
0
0
4.94842e-24
0
3.82264e-23
1.87759e-23
1.81894e-23
1.2753e-23
1.05289e-23
1.00327e-23
-1.67919e-24
2.67088e-24
-4.13367e-12
0
0
0
0
0
0
0
0
0
0
4.68895e-23
3.55788e-24
2.6975e-23
1.48015e-23
9.85334e-24
8.20468e-24
9.99738e-24
-5.04122e-24
3.16424e-24
0
0
0
0
0
0
0
0
0
0
5.5355e-23
0
3.07926e-23
1.40143e-23
1.54694e-23
9.13104e-24
5.87645e-24
4.06998e-24
-6.092e-24
1.33764e-24
0
0
0
0
0
0
0
0
0
0
0
4.75538e-23
1.98462e-24
2.14426e-23
1.22263e-23
7.29221e-24
3.99917e-24
4.56985e-24
-9.04267e-24
1.57025e-24
0
0
0
4.32963e-16
0
2.03204e-18
1.07071e-19
1.3884e-20
1.55933e-21
0
1.47596e-22
0
2.77467e-23
1.22148e-23
1.27884e-23
5.86095e-24
2.44525e-24
8.00071e-25
-1.15427e-23
5.11563e-25
2.79306e-12
6.71507e-13
5.98185e-14
3.65127e-15
2.96144e-16
1.97114e-17
1.39602e-18
1.04815e-19
5.04877e-21
1.05947e-21
0
6.0741e-23
4.34303e-24
1.95366e-23
1.12088e-23
5.57284e-24
1.36007e-24
7.68697e-25
-1.00863e-23
4.82618e-25
5.37474e-12
1.27346e-12
1.26368e-13
6.53675e-15
5.6929e-16
3.60385e-17
2.53003e-18
1.69124e-19
1.53049e-20
6.02639e-23
2.92619e-22
0
3.00879e-23
1.37998e-23
1.20853e-23
4.70607e-24
6.31931e-25
-2.92131e-25
-1.08306e-23
4.13593e-25
7.66108e-12
1.80893e-12
1.8583e-13
9.08979e-15
8.04827e-16
5.1178e-17
3.27593e-18
2.82501e-19
1.01045e-20
2.45839e-21
0
8.74065e-23
1.11162e-23
2.07168e-23
1.06935e-23
4.00316e-24
3.34296e-25
-6.52427e-25
-1.09512e-23
3.20291e-25
9.71902e-12
2.29969e-12
2.4105e-13
1.14153e-14
1.03952e-15
6.31105e-17
4.51575e-18
2.80537e-19
2.86313e-20
0
4.98657e-22
0
4.05341e-23
1.94289e-23
1.34986e-23
4.88386e-24
6.48142e-25
0
-1.06671e-23
3.79322e-25
1.14485e-11
2.71369e-12
2.87423e-13
1.34094e-14
1.21146e-15
7.6527e-17
4.71187e-18
4.34141e-19
1.20285e-20
3.9823e-21
0
1.33111e-22
2.12867e-23
2.94297e-23
1.60739e-23
6.32352e-24
9.22526e-25
1.55429e-24
-8.23948e-24
7.62385e-25
1.30032e-11
3.09779e-12
3.31062e-13
1.52113e-14
1.4075e-15
8.40927e-17
6.10072e-18
3.54747e-19
4.11625e-20
0
7.42001e-22
0
5.92694e-23
3.05455e-23
2.04263e-23
6.74015e-24
1.97599e-24
3.07558e-24
-1.09692e-23
1.39803e-24
1.41481e-11
3.3759e-12
3.62794e-13
1.65643e-14
1.5099e-15
9.54918e-17
5.67597e-18
5.56417e-19
1.13303e-20
5.48876e-21
0
1.97181e-22
4.28876e-23
4.13307e-23
2.54116e-23
9.65847e-24
4.40701e-24
6.52737e-24
-6.92044e-24
2.29383e-24
1.51318e-11
3.62576e-12
3.91722e-13
1.76856e-14
1.65445e-15
9.73342e-17
7.21703e-18
3.864e-19
5.11421e-20
0
9.67285e-22
2.12991e-23
7.78875e-23
5.3346e-23
3.04451e-23
1.18845e-23
6.68198e-24
9.56049e-24
-4.64249e-24
2.87953e-24
1.58178e-11
3.80061e-12
4.12006e-13
1.85877e-14
1.69596e-15
1.08614e-16
6.11393e-18
6.41364e-19
1.06814e-20
6.19703e-21
0
1.84938e-22
8.005e-23
5.6835e-23
3.38993e-23
1.38059e-23
1.08208e-23
1.1076e-23
-8.90697e-25
3.1739e-24
1.56812e-11
3.73667e-12
4.14103e-13
1.82321e-14
1.78165e-15
1.01348e-16
7.98605e-18
4.02764e-19
5.5256e-20
0
8.1134e-22
8.51495e-23
1.07414e-22
6.62226e-23
4.05478e-23
1.76615e-23
1.23162e-23
1.21299e-23
-4.01685e-24
3.92081e-24
1.64943e-11
3.59571e-12
3.89646e-13
1.53967e-14
1.3872e-15
8.74438e-17
4.1593e-18
4.70941e-19
6.73628e-21
4.16106e-21
2.63775e-23
2.27525e-22
1.30533e-22
8.6779e-23
4.85057e-23
2.14897e-23
1.80665e-23
1.7686e-23
-3.29933e-24
6.51125e-24
9.03267e-12
1.86255e-12
1.92623e-13
7.20743e-15
4.83946e-16
5.17535e-17
-1.18834e-18
7.29381e-19
-1.03072e-19
2.06368e-20
-3.44496e-21
8.06274e-22
-2.02786e-23
7.84398e-23
2.61666e-23
1.9295e-23
3.01335e-23
3.38747e-23
1.36647e-23
1.01938e-23
)
;

boundaryField
{
    movingWall
    {
        type            calculated;
        value           nonuniform List<scalar> 
20
(
0
0
0
0
0
0
0
0
0
3.59142e-20
-6.87936e-21
1.43801e-21
-2.38726e-22
6.706e-23
3.55892e-24
1.56093e-23
3.35987e-23
4.02195e-23
2.77333e-23
1.11644e-23
)
;
    }
    fixedWalls
    {
        type            calculated;
        value           nonuniform List<scalar> 
60
(
-7.22015e-11
-1.01766e-10
-2.46371e-11
0
0
0
0
0
1.10664e-11
2.4497e-11
3.6571e-11
4.76437e-11
5.71244e-11
6.57995e-11
7.23616e-11
7.80857e-11
8.21955e-11
8.19013e-11
8.64478e-11
4.75077e-11
8.90093e-25
2.80305e-24
2.41192e-24
2.42801e-24
3.26302e-24
3.59381e-24
3.03791e-24
3.74307e-24
3.11033e-24
4.01392e-24
3.20167e-24
2.5076e-24
3.49267e-24
4.61692e-24
5.79298e-24
4.4028e-24
2.99964e-24
4.09783e-24
7.63682e-24
5.17666e-24
2.61529e-11
5.79802e-12
5.94134e-13
2.11679e-14
2.07099e-15
8.56706e-17
8.11532e-18
0
9.34705e-20
0
2.53522e-21
-4.24432e-22
1.01803e-22
2.02995e-25
9.73555e-24
1.03082e-23
1.62503e-23
1.35165e-23
1.19895e-23
5.09561e-24
)
;
    }
    frontAndBack
    {
        type            empty;
    }
}


// ************************************************************************* //
