/*--------------------------------*- C++ -*----------------------------------*\
| =========                 |                                                 |
| \\      /  F ield         | OpenFOAM: The Open Source CFD Toolbox           |
|  \\    /   O peration     | Version:  2506                                  |
|   \\  /    A nd           | Website:  www.openfoam.com                      |
|    \\/     M anipulation  |                                                 |
\*---------------------------------------------------------------------------*/
FoamFile
{
    version     2.0;
    format      ascii;
    arch        "LSB;label=32;scalar=64";
    class       volVectorField;
    location    "3.625";
    object      LambVectorField;
}
// * * * * * * * * * * * * * * * * * * * * * * * * * * * * * * * * * * * * * //

dimensions      [0 1 -2 0 0 0 0];

internalField   nonuniform List<vector> 
400
(
(-2.74289e-12 -1.50553e-05 0)
(-7.3308e-13 1.74485e-05 -0)
(-4.05421e-14 -4.07123e-06 0)
(-2.20752e-15 9.63994e-07 -0)
(-1.20004e-16 -2.24183e-07 0)
(-6.57628e-18 5.29207e-08 -0)
(-3.51407e-19 -1.2259e-08 0)
(-1.94971e-20 2.96529e-09 -0)
(-9.63422e-22 -6.16651e-10 0)
(-6.57192e-23 2.06266e-10 -0)
(1.43045e-25 1.40299e-12 0)
(5.06076e-26 3.91948e-11 0)
(4.63567e-25 2.16153e-11 0)
(2.56724e-25 1.81105e-11 0)
(1.56572e-25 1.25679e-11 0)
(8.72555e-26 8.55573e-12 0)
(4.88617e-26 4.70532e-12 0)
(5.74671e-27 6.23026e-13 0)
(-9.963e-27 -2.00574e-12 0)
(5.67823e-27 -9.11961e-13 -0)
(-2.91789e-12 1.59495e-05 -0)
(-7.48259e-13 -1.7694e-05 0)
(-4.17286e-14 4.17294e-06 -0)
(-2.2706e-15 -9.83665e-07 0)
(-1.2433e-16 2.31766e-07 -0)
(-6.83737e-18 -5.45618e-08 0)
(-3.62527e-19 1.284e-08 -0)
(-2.03886e-20 -3.01414e-09 0)
(-9.8411e-22 7.10443e-10 -0)
(-6.9535e-23 -1.65162e-10 0)
(-4.40179e-25 3.95166e-11 -0)
(-6.69412e-25 -9.1015e-12 0)
(1.17153e-25 2.43243e-12 0)
(2.05466e-26 4.49582e-13 0)
(4.43767e-26 1.21182e-12 0)
(1.41855e-26 4.80576e-13 0)
(-9.80488e-27 -3.36895e-13 0)
(5.46061e-26 1.71704e-12 0)
(5.91076e-26 5.06833e-12 0)
(9.61464e-27 -5.32143e-13 -0)
(-2.89292e-12 -1.56885e-05 0)
(-7.59291e-13 1.77369e-05 -0)
(-4.24062e-14 -4.18309e-06 0)
(-2.31707e-15 9.86375e-07 -0)
(-1.28117e-16 -2.32564e-07 0)
(-7.01283e-18 5.48288e-08 -0)
(-3.86499e-19 -1.29185e-08 0)
(-2.03156e-20 3.04625e-09 -0)
(-1.24404e-21 -7.15325e-10 0)
(-4.00987e-23 1.68952e-10 -0)
(-7.3827e-24 -3.98783e-11 0)
(6.28985e-25 8.63853e-12 0)
(-1.91831e-25 -2.1623e-12 0)
(1.23445e-25 1.70318e-12 0)
(9.27033e-26 1.53047e-12 0)
(3.61832e-26 7.41882e-13 0)
(-2.83939e-26 -5.91503e-13 0)
(1.426e-25 2.817e-12 0)
(1.60596e-25 8.32497e-12 0)
(2.80324e-26 -9.54274e-13 -0)
(-2.89096e-12 1.54986e-05 -0)
(-7.7681e-13 -1.78618e-05 0)
(-4.34274e-14 4.21585e-06 -0)
(-2.38736e-15 -9.94961e-07 0)
(-1.32223e-16 2.34827e-07 -0)
(-7.32702e-18 -5.54155e-08 0)
(-3.96753e-19 1.30839e-08 -0)
(-2.27583e-20 -3.08375e-09 0)
(-1.07368e-21 7.30241e-10 -0)
(-9.12807e-23 -1.71249e-10 0)
(1.81455e-24 4.02148e-11 0)
(-1.45312e-24 -1.03124e-11 0)
(2.59353e-25 2.37472e-12 0)
(1.04923e-25 1.04549e-12 0)
(1.91159e-25 2.33251e-12 0)
(6.24363e-26 9.39429e-13 0)
(-5.12992e-26 -7.92885e-13 0)
(2.65968e-25 3.81136e-12 0)
(2.89912e-25 1.12488e-11 0)
(5.21878e-26 -1.31377e-12 -0)
(-2.90268e-12 -1.53321e-05 0)
(-8.00112e-13 1.8043e-05 -0)
(-4.47897e-14 -4.2623e-06 0)
(-2.47673e-15 1.00684e-06 -0)
(-1.3792e-16 -2.37846e-07 0)
(-7.64339e-18 5.61973e-08 -0)
(-4.2586e-19 -1.32703e-08 0)
(-2.28214e-20 3.1407e-09 -0)
(-1.4336e-21 -7.38501e-10 0)
(-4.11221e-23 1.76166e-10 -0)
(-1.04218e-23 -4.14106e-11 0)
(1.12389e-24 8.98304e-12 0)
(-2.90779e-25 -2.00866e-12 0)
(3.22207e-25 2.64935e-12 0)
(2.65989e-25 2.60758e-12 0)
(1.02134e-25 1.23753e-12 0)
(-7.73507e-26 -9.58662e-13 0)
(4.01566e-25 4.6905e-12 0)
(4.44036e-25 1.39267e-11 0)
(7.88613e-26 -1.60788e-12 -0)
(-2.94207e-12 1.52691e-05 -0)
(-8.28831e-13 -1.82926e-05 0)
(-4.64536e-14 4.32509e-06 -0)
(-2.58184e-15 -1.02256e-06 0)
(-1.44184e-16 2.41792e-07 -0)
(-8.05316e-18 -5.71682e-08 0)
(-4.44029e-19 1.3528e-08 -0)
(-2.564e-20 -3.19312e-09 0)
(-1.23034e-21 7.59643e-10 -0)
(-1.10789e-22 -1.7735e-10 0)
(3.37672e-24 4.25663e-11 0)
(-2.06576e-24 -1.06252e-11 0)
(4.79234e-25 3.03441e-12 0)
(3.18779e-25 2.19691e-12 0)
(4.32156e-25 3.63499e-12 0)
(1.54307e-25 1.59811e-12 0)
(-8.46746e-26 -9.03764e-13 0)
(5.6804e-25 5.68598e-12 0)
(5.8942e-25 1.61219e-11 0)
(1.08637e-25 -1.90655e-12 -0)
(-3.00389e-12 -1.52841e-05 0)
(-8.6266e-13 1.85988e-05 -0)
(-4.83971e-14 -4.40144e-06 0)
(-2.70291e-15 1.04156e-06 -0)
(-1.51451e-16 -2.46492e-07 0)
(-8.46139e-18 5.83507e-08 -0)
(-4.77086e-19 -1.38029e-08 0)
(-2.57524e-20 3.27489e-09 -0)
(-1.65938e-21 -7.70372e-10 0)
(-4.31781e-23 1.85275e-10 -0)
(-1.33407e-23 -4.28583e-11 0)
(1.69421e-24 1.00428e-11 0)
(-2.52659e-25 -1.3224e-12 0)
(6.50293e-25 4.03775e-12 0)
(5.38224e-25 3.99598e-12 0)
(2.18972e-25 2.01585e-12 0)
(-8.81243e-26 -8.36751e-13 0)
(7.0789e-25 6.3913e-12 0)
(7.24472e-25 1.79681e-11 0)
(1.40318e-25 -2.20969e-12 -0)
(-3.08862e-12 1.53827e-05 -0)
(-9.0084e-13 -1.8955e-05 0)
(-5.05832e-14 4.48954e-06 -0)
(-2.83666e-15 -1.06329e-06 0)
(-1.59157e-16 2.51865e-07 -0)
(-8.95846e-18 -5.96528e-08 0)
(-4.97579e-19 1.41429e-08 -0)
(-2.91347e-20 -3.34245e-09 0)
(-1.37555e-21 7.98121e-10 -0)
(-1.33995e-22 -1.8543e-10 0)
(5.38309e-24 4.56948e-11 0)
(-2.51239e-24 -1.03317e-11 0)
(8.33138e-25 4.19453e-12 0)
(6.23328e-25 3.45609e-12 0)
(7.31146e-25 4.97419e-12 0)
(2.98013e-25 2.51088e-12 0)
(-7.17654e-26 -6.29418e-13 0)
(8.50118e-25 7.11028e-12 0)
(8.3369e-25 1.94261e-11 0)
(1.65646e-25 -2.41942e-12 -0)
(-3.18898e-12 -1.55337e-05 0)
(-9.4225e-13 1.93428e-05 -0)
(-5.29551e-14 -4.58493e-06 0)
(-2.97863e-15 1.08674e-06 -0)
(-1.67683e-16 -2.57596e-07 0)
(-9.40557e-18 6.10803e-08 -0)
(-5.36573e-19 -1.44702e-08 0)
(-2.87614e-20 3.44065e-09 -0)
(-1.93035e-21 -8.08837e-10 0)
(-4.11491e-23 1.96538e-10 -0)
(-1.64537e-23 -4.39573e-11 0)
(2.46342e-24 1.17074e-11 0)
(-7.35083e-26 -3.20551e-13 0)
(1.00487e-24 5.25765e-12 0)
(8.0096e-25 5.05942e-12 0)
(3.4778e-25 2.74476e-12 0)
(-5.25227e-26 -4.33695e-13 0)
(9.59592e-25 7.65521e-12 0)
(9.00954e-25 2.02221e-11 0)
(1.8706e-25 -2.60822e-12 -0)
(-3.30138e-12 1.5723e-05 -0)
(-9.86214e-13 -1.97521e-05 0)
(-5.54585e-14 4.68518e-06 -0)
(-3.12968e-15 -1.11122e-06 0)
(-1.76127e-16 2.63598e-07 -0)
(-9.9725e-18 -6.25199e-08 0)
(-5.54814e-19 1.4845e-08 -0)
(-3.30602e-20 -3.51217e-09 0)
(-1.49884e-21 8.41091e-10 -0)
(-1.61259e-22 -1.94225e-10 0)
(8.05537e-24 4.95189e-11 0)
(-2.8153e-24 -9.76905e-12 0)
(1.29266e-24 5.58719e-12 0)
(9.52976e-25 4.63169e-12 0)
(9.77128e-25 5.90309e-12 0)
(4.03513e-25 3.0425e-12 0)
(-2.08929e-26 -1.66683e-13 0)
(1.03262e-24 8.04666e-12 0)
(9.4095e-25 2.07162e-11 0)
(1.95541e-25 -2.6636e-12 -0)
(-3.42039e-12 -1.59356e-05 0)
(-1.03092e-12 2.01651e-05 -0)
(-5.80158e-14 -4.78581e-06 0)
(-3.27917e-15 1.13576e-06 -0)
(-1.85237e-16 -2.69545e-07 0)
(-1.04097e-17 6.39926e-08 -0)
(-5.99778e-19 -1.51779e-08 0)
(-3.17619e-20 3.61401e-09 -0)
(-2.22842e-21 -8.49788e-10 0)
(-3.60681e-23 2.07815e-10 -0)
(-1.97277e-23 -4.52159e-11 0)
(3.3566e-24 1.35808e-11 0)
(2.09378e-25 8.11739e-13 0)
(1.34909e-24 6.40653e-12 0)
(1.0503e-24 6.11896e-12 0)
(4.84491e-25 3.57381e-12 0)
(2.01025e-26 1.57995e-13 0)
(1.07157e-24 8.29973e-12 0)
(9.375e-25 2.08099e-11 0)
(2.01838e-25 -2.7435e-12 -0)
(-3.54306e-12 1.61603e-05 -0)
(-1.07611e-12 -2.05758e-05 0)
(-6.05767e-14 4.88572e-06 -0)
(-3.4332e-15 -1.15999e-06 0)
(-1.93579e-16 2.7545e-07 -0)
(-1.10083e-17 -6.53978e-08 0)
(-6.12046e-19 1.55437e-08 -0)
(-3.70613e-20 -3.68094e-09 0)
(-1.60973e-21 8.82937e-10 -0)
(-1.89075e-22 -2.03232e-10 0)
(1.06563e-23 5.2936e-11 0)
(-2.9552e-24 -9.17469e-12 0)
(1.65701e-24 6.6006e-12 0)
(1.17192e-24 5.37208e-12 0)
(1.12405e-24 6.51047e-12 0)
(4.82591e-25 3.53515e-12 0)
(4.06536e-26 3.20789e-13 0)
(1.04983e-24 8.2618e-12 0)
(9.14742e-25 2.0485e-11 0)
(1.94588e-25 -2.6892e-12 -0)
(-3.66462e-12 -1.63896e-05 0)
(-1.11947e-12 2.09669e-05 -0)
(-6.30562e-14 -4.9804e-06 0)
(-3.57544e-15 1.18294e-06 -0)
(-2.02447e-16 -2.80979e-07 0)
(-1.13865e-17 6.67619e-08 -0)
(-6.60868e-19 -1.58485e-08 0)
(-3.46199e-20 3.77628e-09 -0)
(-2.51223e-21 -8.88605e-10 0)
(-3.23849e-23 2.1796e-10 -0)
(-2.2419e-23 -4.67274e-11 0)
(3.95985e-24 1.48806e-11 0)
(3.23856e-25 1.20678e-12 0)
(1.42216e-24 6.65639e-12 0)
(1.0382e-24 6.05568e-12 0)
(4.71583e-25 3.52315e-12 0)
(5.95515e-26 4.82311e-13 0)
(9.87189e-25 8.00398e-12 0)
(8.46289e-25 1.97319e-11 0)
(1.78789e-25 -2.56715e-12 -0)
(-3.78206e-12 1.66106e-05 -0)
(-1.16123e-12 -2.13363e-05 0)
(-6.54127e-14 5.06982e-06 -0)
(-3.71746e-15 -1.20452e-06 0)
(-2.09852e-16 2.86215e-07 -0)
(-1.1968e-17 -6.80001e-08 0)
(-6.64761e-19 1.61714e-08 -0)
(-4.0693e-20 -3.83324e-09 0)
(-1.72235e-21 9.19318e-10 -0)
(-2.11207e-22 -2.11933e-10 0)
(1.18872e-23 5.54487e-11 0)
(-3.06939e-24 -9.28196e-12 0)
(1.75589e-24 7.0847e-12 0)
(1.09048e-24 5.16699e-12 0)
(1.00503e-24 6.12122e-12 0)
(4.3295e-25 3.37131e-12 0)
(6.10136e-26 5.19422e-13 0)
(8.80492e-25 7.6142e-12 0)
(7.69138e-25 1.87359e-11 0)
(1.51144e-25 -2.30801e-12 -0)
(-3.89205e-12 -1.68242e-05 0)
(-1.19884e-12 2.16684e-05 -0)
(-6.75645e-14 -5.14984e-06 0)
(-3.83843e-15 1.22383e-06 -0)
(-2.17654e-16 -2.90846e-07 0)
(-1.22458e-17 6.91392e-08 -0)
(-7.13794e-19 -1.64235e-08 0)
(-3.72059e-20 3.91318e-09 -0)
(-2.73099e-21 -9.22733e-10 0)
(-3.61003e-23 2.25382e-10 -0)
(-2.36539e-23 -4.88578e-11 0)
(3.89377e-24 1.53872e-11 0)
(2.18525e-25 8.72086e-13 0)
(1.19277e-24 6.14238e-12 0)
(8.10746e-25 5.27672e-12 0)
(3.75568e-25 3.17256e-12 0)
(4.73371e-26 4.39016e-13 0)
(7.36921e-25 6.9259e-12 0)
(6.33799e-25 1.70325e-11 0)
(1.21471e-25 -2.04786e-12 -0)
(-3.99151e-12 1.70157e-05 -0)
(-1.23298e-12 -2.19642e-05 0)
(-6.948e-14 5.22117e-06 -0)
(-3.95475e-15 -1.24098e-06 0)
(-2.23371e-16 2.9499e-07 -0)
(-1.27592e-17 -7.01145e-08 0)
(-7.08532e-19 1.66779e-08 -0)
(-4.34661e-20 -3.95691e-09 0)
(-1.86053e-21 9.47634e-10 -0)
(-2.18967e-22 -2.19733e-10 0)
(1.02155e-23 5.66543e-11 0)
(-2.96869e-24 -9.9812e-12 0)
(1.38791e-24 6.56913e-12 0)
(7.15639e-25 4.03733e-12 0)
(6.66875e-25 4.92536e-12 0)
(2.57193e-25 2.45033e-12 0)
(4.04713e-26 4.25245e-13 0)
(5.6598e-25 6.14951e-12 0)
(4.81329e-25 1.47681e-11 0)
(9.37352e-26 -1.81732e-12 -0)
(-4.07612e-12 -1.71816e-05 0)
(-1.26107e-12 2.2208e-05 -0)
(-7.10893e-14 -5.27958e-06 0)
(-4.04233e-15 1.255e-06 -0)
(-2.29406e-16 -2.98332e-07 0)
(-1.29066e-17 7.09336e-08 -0)
(-7.52692e-19 -1.68565e-08 0)
(-3.95168e-20 4.01499e-09 -0)
(-2.81309e-21 -9.48849e-10 0)
(-5.68178e-23 2.30505e-10 -0)
(-2.13647e-23 -5.0826e-11 0)
(2.87995e-24 1.53377e-11 0)
(2.53624e-26 1.32732e-13 0)
(7.00728e-25 4.90694e-12 0)
(4.44147e-25 3.9683e-12 0)
(2.15009e-25 2.51466e-12 0)
(4.82061e-26 6.19357e-13 0)
(4.03244e-25 5.26442e-12 0)
(3.18695e-25 1.21304e-11 0)
(7.07858e-26 -1.65356e-12 -0)
(-4.15422e-12 1.73534e-05 -0)
(-1.28475e-12 -2.24153e-05 0)
(-7.24014e-14 5.32944e-06 -0)
(-4.1253e-15 -1.26695e-06 0)
(-2.33001e-16 3.01212e-07 -0)
(-1.33177e-17 -7.16094e-08 0)
(-7.42249e-19 1.70321e-08 -0)
(-4.48644e-20 -4.04516e-09 0)
(-2.08518e-21 9.6594e-10 -0)
(-2.02177e-22 -2.26428e-10 0)
(4.10827e-24 5.64507e-11 0)
(-2.37095e-24 -1.13079e-11 0)
(6.76681e-25 5.06717e-12 0)
(2.56149e-25 2.24679e-12 0)
(2.59453e-25 3.04078e-12 0)
(9.56837e-26 1.43837e-12 0)
(6.0774e-27 1.0067e-13 0)
(2.28826e-25 3.95028e-12 0)
(2.02076e-25 9.68398e-12 0)
(4.07969e-26 -1.20832e-12 -0)
(-4.19762e-12 -1.74253e-05 0)
(-1.3014e-12 2.2564e-05 -0)
(-7.34163e-14 -5.36915e-06 0)
(-4.17598e-15 1.27745e-06 -0)
(-2.37096e-16 -3.03948e-07 0)
(-1.33555e-17 7.233e-08 -0)
(-7.7231e-19 -1.72081e-08 0)
(-4.18002e-20 4.09793e-09 -0)
(-2.70863e-21 -9.73438e-10 0)
(-9.58523e-23 2.32811e-10 -0)
(-1.59108e-23 -5.49353e-11 0)
(1.03149e-24 1.29532e-11 0)
(-2.91769e-25 -2.91206e-12 0)
(9.38414e-26 1.3512e-12 0)
(1.79688e-26 3.26894e-13 0)
(-2.6773e-26 -6.44884e-13 0)
(-6.63941e-26 -1.70592e-12 0)
(7.31851e-26 1.7521e-12 0)
(1.29349e-25 7.2362e-12 0)
(4.36331e-27 -1.87478e-13 -0)
(-4.33133e-12 1.78953e-05 -0)
(-1.32311e-12 -2.27422e-05 0)
(-7.5229e-14 5.45113e-06 -0)
(-4.29617e-15 -1.29536e-06 0)
(-2.46375e-16 3.11147e-07 -0)
(-1.40283e-17 -7.3954e-08 0)
(-8.16038e-19 1.79778e-08 -0)
(-4.5466e-20 -4.11692e-09 0)
(-2.88412e-21 1.1369e-09 -0)
(-1.13363e-22 -1.61919e-10 0)
(-1.2769e-23 1.23153e-10 -0)
(2.47866e-24 3.31967e-11 0)
(7.99732e-25 3.84536e-11 0)
(5.95231e-25 2.39266e-11 0)
(2.7624e-25 1.67091e-11 0)
(1.39702e-25 1.06652e-11 0)
(8.66529e-26 6.32855e-12 0)
(2.14097e-26 1.27722e-12 0)
(-1.91228e-26 -2.17783e-12 0)
(1.10802e-26 -1.28515e-12 -0)
)
;

boundaryField
{
    movingWall
    {
        type            calculated;
        value           nonuniform List<vector> 
20
(
(0 2.00921e-05 -0)
(0 -2.32212e-05 -0)
(0 5.66732e-06 -0)
(0 -1.3421e-06 -0)
(0 3.28714e-07 -0)
(0 -7.83762e-08 -0)
(0 1.95304e-08 -0)
(0 -4.36646e-09 -0)
(0 1.36849e-09 -0)
(0 -1.05648e-10 -0)
(0 2.00036e-10 -0)
(0 8.12547e-11 -0)
(0 7.66548e-11 -0)
(0 5.06086e-11 -0)
(0 3.52839e-11 -0)
(0 2.36431e-11 -0)
(0 1.50879e-11 -0)
(0 2.6228e-12 -0)
(0 -7.72002e-12 -0)
(0 -3.09273e-12 -0)
)
;
    }
    fixedWalls
    {
        type            calculated;
        value           nonuniform List<vector> 
60
(
(0 -7.39129e-05 -0)
(0 7.50621e-05 -0)
(0 -7.52886e-05 -0)
(0 7.58067e-05 -0)
(0 -7.65626e-05 -0)
(0 7.76044e-05 -0)
(0 -7.88833e-05 -0)
(0 8.03709e-05 -0)
(0 -8.19934e-05 -0)
(0 8.37075e-05 -0)
(0 -8.54397e-05 -0)
(0 8.71635e-05 -0)
(0 -8.88072e-05 -0)
(0 9.03601e-05 -0)
(0 -9.1758e-05 -0)
(0 9.30027e-05 -0)
(0 -9.40313e-05 -0)
(0 9.49018e-05 -0)
(0 -9.54606e-05 -0)
(0 9.63244e-05 -0)
(0 -3.2766e-12 -0)
(0 -7.11869e-12 -0)
(0 -1.16961e-11 -0)
(0 -1.58081e-11 -0)
(0 -1.95103e-11 -0)
(0 -2.26568e-11 -0)
(0 -2.5292e-11 -0)
(0 -2.72506e-11 -0)
(0 -2.85793e-11 -0)
(0 -2.92293e-11 -0)
(0 -2.93195e-11 -0)
(0 -2.88624e-11 -0)
(0 -2.77496e-11 -0)
(0 -2.60592e-11 -0)
(0 -2.35638e-11 -0)
(0 -2.05502e-11 -0)
(0 -1.71232e-11 -0)
(0 -1.3424e-11 -0)
(0 -8.9571e-12 -0)
(0 -4.74973e-12 -0)
(0 -1.2162e-05 -0)
(0 1.68968e-05 -0)
(0 -3.82429e-06 -0)
(0 9.211e-07 -0)
(0 -2.07118e-07 -0)
(0 4.90672e-08 -0)
(0 -1.10935e-08 -0)
(0 2.7297e-09 -0)
(0 -4.76702e-10 -0)
(0 2.32414e-10 -0)
(0 4.59028e-11 -0)
(0 6.81807e-11 -0)
(0 4.56962e-11 -0)
(0 3.53601e-11 -0)
(0 2.50002e-11 -0)
(0 1.69939e-11 -0)
(0 9.82302e-12 -0)
(0 7.19346e-13 -0)
(0 -6.09331e-12 -0)
(0 -1.81345e-12 -0)
)
;
    }
    frontAndBack
    {
        type            empty;
    }
}


// ************************************************************************* //
