/*--------------------------------*- C++ -*----------------------------------*\
| =========                 |                                                 |
| \\      /  F ield         | OpenFOAM: The Open Source CFD Toolbox           |
|  \\    /   O peration     | Version:  2506                                  |
|   \\  /    A nd           | Website:  www.openfoam.com                      |
|    \\/     M anipulation  |                                                 |
\*---------------------------------------------------------------------------*/
FoamFile
{
    version     2.0;
    format      ascii;
    arch        "LSB;label=32;scalar=64";
    class       volScalarField;
    location    "3.625";
    object      pzeroGrad;
}
// * * * * * * * * * * * * * * * * * * * * * * * * * * * * * * * * * * * * * //

dimensions      [0 2 -2 0 0 0 0];

internalField   nonuniform List<scalar> 
400
(
0
4.62638e-10
1.24305e-10
1.21806e-10
1.00034e-10
1.01872e-10
1.02015e-10
1.02777e-10
1.03136e-10
1.034e-10
1.03573e-10
1.03695e-10
1.03781e-10
1.03841e-10
1.03884e-10
1.03915e-10
1.03934e-10
1.03942e-10
1.03944e-10
1.03942e-10
4.18985e-10
0
7.31964e-11
1.5032e-11
1.07644e-10
9.81649e-11
1.03474e-10
1.02606e-10
1.03256e-10
1.03397e-10
1.03592e-10
1.03702e-10
1.03785e-10
1.03841e-10
1.03882e-10
1.03911e-10
1.03928e-10
1.03935e-10
1.03937e-10
1.03936e-10
0
1.96802e-09
1.28741e-10
2.2611e-10
8.79284e-11
1.06386e-10
1.00372e-10
1.03165e-10
1.03098e-10
1.03494e-10
1.03607e-10
1.03723e-10
1.03791e-10
1.03842e-10
1.03877e-10
1.03902e-10
1.03918e-10
1.03923e-10
1.03924e-10
1.03922e-10
6.50285e-10
0
5.45298e-11
0
1.16672e-10
9.53397e-11
1.05122e-10
1.02668e-10
1.03519e-10
1.03491e-10
1.03672e-10
1.03742e-10
1.03804e-10
1.03842e-10
1.0387e-10
1.0389e-10
1.03901e-10
1.03904e-10
1.03904e-10
1.03903e-10
0
2.93784e-09
1.54309e-10
2.95929e-10
8.34338e-11
1.10349e-10
1.00015e-10
1.03758e-10
1.03299e-10
1.03691e-10
1.03712e-10
1.03786e-10
1.03818e-10
1.03845e-10
1.03861e-10
1.03873e-10
1.03879e-10
1.0388e-10
1.03878e-10
1.03876e-10
6.93161e-10
0
3.42239e-11
0
1.22551e-10
9.47993e-11
1.06715e-10
1.03153e-10
1.03947e-10
1.03719e-10
1.03823e-10
1.03824e-10
1.03841e-10
1.03846e-10
1.03851e-10
1.03854e-10
1.03853e-10
1.03849e-10
1.03847e-10
1.03845e-10
0
3.3936e-09
1.82578e-10
3.30611e-10
8.38349e-11
1.13148e-10
1.0063e-10
1.04507e-10
1.03722e-10
1.03991e-10
1.03891e-10
1.03889e-10
1.03863e-10
1.0385e-10
1.03838e-10
1.0383e-10
1.03822e-10
1.03815e-10
1.0381e-10
1.03808e-10
6.34974e-10
0
1.86393e-11
0
1.25488e-10
9.59201e-11
1.08036e-10
1.03897e-10
1.0447e-10
1.04049e-10
1.04031e-10
1.03941e-10
1.03894e-10
1.03852e-10
1.03824e-10
1.03804e-10
1.03787e-10
1.03774e-10
1.03769e-10
1.03768e-10
0
3.46409e-09
2.00574e-10
3.37325e-10
8.64814e-11
1.14791e-10
1.0177e-10
1.05301e-10
1.04266e-10
1.04351e-10
1.04117e-10
1.04017e-10
1.03921e-10
1.03856e-10
1.03809e-10
1.03775e-10
1.0375e-10
1.03733e-10
1.03726e-10
1.03724e-10
5.49947e-10
0
1.47908e-11
0
1.26613e-10
9.79794e-11
1.09067e-10
1.04743e-10
1.05023e-10
1.04428e-10
1.04268e-10
1.04077e-10
1.03955e-10
1.03859e-10
1.03792e-10
1.03745e-10
1.0371e-10
1.03687e-10
1.0368e-10
1.03679e-10
0
3.25105e-09
2.06122e-10
3.24173e-10
9.03928e-11
1.156e-10
1.03188e-10
1.06079e-10
1.04857e-10
1.04729e-10
1.04361e-10
1.04157e-10
1.03984e-10
1.03863e-10
1.03776e-10
1.03714e-10
1.0367e-10
1.03644e-10
1.03634e-10
1.03633e-10
4.62648e-10
0
2.17982e-11
0
1.26384e-10
1.00565e-10
1.09817e-10
1.05604e-10
1.05562e-10
1.04818e-10
1.04511e-10
1.04219e-10
1.0402e-10
1.03867e-10
1.03761e-10
1.03685e-10
1.03631e-10
1.03599e-10
1.03589e-10
1.0359e-10
0
2.82544e-09
2.0097e-10
2.96319e-10
9.50621e-11
1.15741e-10
1.04731e-10
1.06794e-10
1.05445e-10
1.051e-10
1.04609e-10
1.043e-10
1.04053e-10
1.03875e-10
1.03748e-10
1.03658e-10
1.03596e-10
1.0356e-10
1.03548e-10
1.03548e-10
3.79084e-10
0
3.74445e-11
0
1.25108e-10
1.03416e-10
1.10301e-10
1.06425e-10
1.06056e-10
1.05196e-10
1.04751e-10
1.04366e-10
1.04092e-10
1.03886e-10
1.0374e-10
1.03637e-10
1.03565e-10
1.03524e-10
1.03511e-10
1.03512e-10
0
2.24737e-09
1.87658e-10
2.57962e-10
1.00137e-10
1.15342e-10
1.06281e-10
1.07405e-10
1.0599e-10
1.05442e-10
1.04846e-10
1.04444e-10
1.0413e-10
1.03901e-10
1.03736e-10
1.03621e-10
1.03541e-10
1.03495e-10
1.0348e-10
1.0348e-10
3.01569e-10
0
5.94118e-11
0
1.23023e-10
1.06279e-10
1.10502e-10
1.07137e-10
1.06465e-10
1.05529e-10
1.04968e-10
1.04507e-10
1.0417e-10
1.03918e-10
1.03738e-10
1.03611e-10
1.03522e-10
1.03471e-10
1.03453e-10
1.03453e-10
0
1.57394e-09
1.68406e-10
2.129e-10
1.05177e-10
1.14441e-10
1.07661e-10
1.07829e-10
1.06424e-10
1.05708e-10
1.05043e-10
1.04569e-10
1.04204e-10
1.03935e-10
1.03741e-10
1.03603e-10
1.03507e-10
1.03451e-10
1.03432e-10
1.03432e-10
2.27757e-10
0
8.60099e-11
4.64752e-11
1.20181e-10
1.08745e-10
1.10318e-10
1.07622e-10
1.06721e-10
1.05766e-10
1.05127e-10
1.04617e-10
1.04237e-10
1.03952e-10
1.03747e-10
1.03602e-10
1.03499e-10
1.03438e-10
1.03417e-10
1.03418e-10
5.87005e-11
8.53509e-10
1.46013e-10
1.62028e-10
1.0958e-10
1.12717e-10
1.08732e-10
1.08001e-10
1.06726e-10
1.05889e-10
1.05192e-10
1.04671e-10
1.04272e-10
1.03977e-10
1.03762e-10
1.03607e-10
1.03497e-10
1.03434e-10
1.03414e-10
1.03413e-10
1.55014e-10
0
1.26214e-10
9.05267e-11
1.17564e-10
1.09937e-10
1.10006e-10
1.07904e-10
1.06896e-10
1.05937e-10
1.05251e-10
1.0471e-10
1.04303e-10
1.03998e-10
1.03777e-10
1.03614e-10
1.03501e-10
1.0344e-10
1.03419e-10
1.03413e-10
)
;

boundaryField
{
    movingWall
    {
        type            zeroGradient;
    }
    fixedWalls
    {
        type            zeroGradient;
    }
    frontAndBack
    {
        type            empty;
    }
}


// ************************************************************************* //
