/*--------------------------------*- C++ -*----------------------------------*\
| =========                 |                                                 |
| \\      /  F ield         | OpenFOAM: The Open Source CFD Toolbox           |
|  \\    /   O peration     | Version:  2506                                  |
|   \\  /    A nd           | Website:  www.openfoam.com                      |
|    \\/     M anipulation  |                                                 |
\*---------------------------------------------------------------------------*/
FoamFile
{
    version     2.0;
    format      ascii;
    arch        "LSB;label=32;scalar=64";
    class       volScalarField;
    location    "3.625";
    object      QField;
}
// * * * * * * * * * * * * * * * * * * * * * * * * * * * * * * * * * * * * * //

dimensions      [0 0 -2 0 0 0 0];

internalField   nonuniform List<scalar> 
400
(
1.45209e-11
3.87377e-12
3.92287e-13
2.03883e-14
1.64802e-15
1.14142e-16
5.78245e-18
6.88644e-19
-5.33293e-21
8.61376e-21
-1.12809e-21
1.92925e-22
-7.4226e-23
-1.79632e-23
-1.68433e-23
-1.30169e-23
-1.59269e-23
-1.78595e-23
-6.20721e-24
-5.49823e-24
2.62329e-11
6.7987e-12
6.94174e-13
3.45822e-14
2.90189e-15
1.86706e-16
1.13762e-17
8.78064e-19
4.45403e-20
4.15658e-21
-2.13625e-23
-1.16077e-24
-5.16709e-23
-3.08398e-23
-2.19152e-23
-1.49459e-23
-1.5474e-23
-1.58686e-23
-1.76843e-25
-4.71267e-24
2.09878e-11
5.16131e-12
5.41686e-13
2.47795e-14
2.21799e-15
1.32167e-16
8.84057e-18
5.79351e-19
4.36985e-20
1.10773e-21
3.76305e-22
-9.6213e-23
-2.40674e-23
-3.40904e-23
-2.01781e-23
-1.32647e-23
-1.38183e-23
-1.59065e-23
2.14303e-24
-4.69182e-24
1.58995e-11
3.78622e-12
4.17929e-13
1.78145e-14
1.69438e-15
9.86897e-17
6.42319e-18
4.91644e-19
2.25628e-20
3.02745e-21
-2.07397e-22
4.55716e-23
-4.98063e-23
-2.30943e-23
-1.94186e-23
-1.29773e-23
-1.18063e-23
-1.12236e-23
2.99193e-24
-3.25923e-24
1.03637e-11
2.30685e-12
2.80337e-13
1.01966e-14
1.07678e-15
5.85564e-17
3.65836e-18
2.75316e-19
1.73418e-20
-6.69999e-24
3.14937e-22
-1.01654e-22
-8.87934e-24
-2.95121e-23
-1.65978e-23
-1.03903e-23
-9.07221e-24
-1.11306e-23
6.00023e-24
-3.27331e-24
5.61279e-12
1.07622e-12
1.64781e-13
3.9262e-15
5.94823e-16
2.45349e-17
1.71067e-18
1.24805e-19
2.57854e-21
1.27152e-21
-2.94159e-22
5.29223e-23
-4.4495e-23
-1.73566e-23
-1.60211e-23
-9.53632e-24
-7.01992e-24
-5.13041e-24
6.8037e-24
-1.76554e-24
1.39674e-12
9.21702e-15
6.01054e-14
-1.26591e-15
1.33777e-16
-2.45353e-18
-3.22652e-19
-1.51992e-20
-2.5549e-22
-1.31541e-21
2.56108e-22
-1.06639e-22
-4.13278e-24
-2.43988e-23
-1.32395e-23
-7.44626e-24
-4.60547e-24
-5.44738e-24
9.48109e-24
-1.62099e-24
-2.03134e-12
-8.19497e-13
-2.47069e-14
-5.21032e-15
-2.11763e-16
-2.40555e-17
-1.68822e-18
-1.00407e-19
-1.44558e-20
5.70352e-22
-4.16602e-22
5.02945e-23
-4.06938e-23
-1.43602e-23
-1.28604e-23
-6.51234e-24
-3.24774e-24
-1.3053e-24
1.18137e-23
-6.80396e-25
-4.98926e-12
-1.51808e-12
-9.93095e-14
-8.50817e-15
-5.1738e-16
-4.25759e-17
-2.76965e-18
-2.26606e-19
-8.27881e-21
-2.60353e-21
2.5174e-22
-1.16246e-22
-4.51755e-24
-2.18982e-23
-1.1719e-23
-5.70814e-24
-1.79639e-24
-1.09316e-24
1.01966e-23
-5.09075e-25
-7.50795e-12
-2.09602e-12
-1.64546e-13
-1.11654e-14
-7.8148e-16
-5.64959e-17
-3.99404e-18
-2.40631e-19
-2.77998e-20
4.23714e-22
-5.46218e-22
4.73083e-23
-3.98165e-23
-1.47461e-23
-1.22226e-23
-5.16984e-24
-9.54011e-25
5.45285e-25
1.09526e-23
-3.29197e-25
-9.66595e-12
-2.58384e-12
-2.21659e-13
-1.34348e-14
-9.98948e-16
-7.11298e-17
-4.43196e-18
-3.87722e-19
-1.21894e-20
-3.77606e-21
2.65371e-22
-1.26191e-22
-8.75665e-24
-2.19353e-23
-1.0775e-23
-4.08386e-24
-3.8268e-25
6.81934e-25
1.09727e-23
-3.29183e-25
-1.15033e-11
-2.99105e-12
-2.72887e-13
-1.52364e-14
-1.21195e-15
-7.96174e-17
-5.67998e-18
-3.36359e-19
-3.82281e-20
4.50581e-22
-6.55947e-22
3.56362e-23
-4.38273e-23
-1.91929e-23
-1.3496e-23
-4.77079e-24
-4.96823e-25
-3.2156e-25
1.07291e-23
-5.86979e-25
-1.29852e-11
-3.31061e-12
-3.14849e-13
-1.67055e-14
-1.35703e-15
-9.1359e-17
-5.56607e-18
-5.08849e-19
-1.41974e-20
-4.72456e-21
2.58647e-22
-1.41583e-22
-2.20077e-23
-2.93653e-23
-1.60916e-23
-6.48399e-24
-1.12593e-24
-1.6453e-24
8.29115e-24
-8.30289e-25
-1.42493e-11
-3.58287e-12
-3.53265e-13
-1.78566e-14
-1.5255e-15
-9.5347e-17
-6.87076e-18
-3.9554e-19
-4.62194e-20
5.42673e-22
-7.54881e-22
8.14791e-24
-5.6682e-23
-3.17685e-23
-2.0635e-23
-7.33705e-24
-2.53929e-24
-4.20099e-24
1.103e-23
-1.81498e-24
-1.51136e-11
-3.75191e-12
-3.79979e-13
-1.86129e-14
-1.5995e-15
-1.04493e-16
-6.20586e-18
-5.95468e-19
-1.43265e-20
-5.48827e-21
2.15147e-22
-1.7134e-22
-4.8844e-23
-4.33024e-23
-2.55816e-23
-1.06549e-23
-5.07848e-24
-6.77849e-24
7.24622e-24
-2.58367e-24
-1.58222e-11
-3.89507e-12
-4.03984e-13
-1.91326e-14
-1.71864e-15
-1.03414e-16
-7.59968e-18
-4.15646e-19
-5.12833e-20
4.71949e-22
-8.25452e-22
-5.37073e-23
-8.64362e-23
-5.41021e-23
-3.21488e-23
-1.40768e-23
-8.19394e-24
-1.12607e-23
5.03852e-24
-3.55501e-24
-1.6272e-11
-3.97712e-12
-4.20012e-13
-1.95481e-14
-1.73744e-15
-1.1269e-16
-6.40062e-18
-6.48938e-19
-1.50273e-20
-5.5788e-21
3.33626e-23
-2.03022e-22
-8.64151e-23
-6.01599e-23
-3.4525e-23
-1.56566e-23
-1.15611e-23
-1.21074e-23
1.50279e-24
-3.66995e-24
-1.59371e-11
-3.83624e-12
-4.18575e-13
-1.8729e-14
-1.80272e-15
-1.03388e-16
-8.0308e-18
-4.21676e-19
-5.21896e-20
-2.66821e-22
-8.17151e-22
-1.26197e-22
-1.15964e-22
-7.04725e-23
-4.11454e-23
-1.96871e-23
-1.3942e-23
-1.39714e-23
4.19849e-24
-4.55252e-24
-1.66191e-11
-3.66047e-12
-3.92738e-13
-1.58127e-14
-1.40983e-15
-8.92536e-17
-4.38634e-18
-4.69398e-19
-1.06658e-20
-3.96825e-21
-1.53115e-22
-2.57655e-22
-1.30824e-22
-9.01999e-23
-5.1268e-23
-2.62001e-23
-1.98209e-23
-2.12712e-23
3.84285e-24
-6.93673e-24
-9.05702e-12
-1.87919e-12
-1.93592e-13
-7.38122e-15
-4.93595e-16
-5.33094e-17
1.97499e-18
-7.50347e-19
1.07405e-19
-2.12231e-20
3.58659e-21
-8.22476e-22
3.51594e-23
-7.86969e-23
-2.93819e-23
-2.28096e-23
-3.02611e-23
-3.72147e-23
-1.54401e-23
-1.06543e-23
)
;

boundaryField
{
    movingWall
    {
        type            calculated;
        value           nonuniform List<scalar> 
20
(
-3.04638e-13
2.00421e-13
5.0188e-13
-1.12779e-15
2.04211e-15
6.22671e-18
1.31844e-17
-1.12359e-18
2.90136e-19
-4.72663e-20
9.05471e-21
-1.65862e-21
2.66444e-22
-7.21907e-23
-3.92194e-24
-1.8077e-23
-3.46107e-23
-4.20258e-23
-3.06102e-23
-1.15471e-23
)
;
    }
    fixedWalls
    {
        type            calculated;
        value           nonuniform List<scalar> 
60
(
7.5503e-11
1.36525e-10
1.09453e-10
8.31621e-11
5.44882e-11
2.98417e-11
7.92019e-12
-9.93788e-12
-2.5401e-11
-3.86132e-11
-4.99888e-11
-5.97177e-11
-6.76117e-11
-7.4378e-11
-7.90493e-11
-8.28987e-11
-8.53725e-11
-8.3702e-11
-8.73492e-11
-4.76899e-11
-2.14204e-24
-4.07328e-24
-3.52211e-24
-3.38862e-24
-3.96638e-24
-4.11598e-24
-3.36593e-24
-3.8575e-24
-3.11033e-24
-3.93038e-24
-3.23734e-24
-2.63243e-24
-3.56973e-24
-4.69679e-24
-5.83509e-24
-4.53676e-24
-3.08554e-24
-4.48145e-24
-8.52795e-24
-5.42819e-24
1.85438e-12
1.55685e-12
-2.84719e-13
1.17844e-14
-9.98183e-16
2.8202e-17
-3.32145e-18
3.98984e-19
-8.27037e-20
1.48768e-20
-2.76045e-21
4.80117e-22
-1.15643e-22
-6.86133e-25
-1.22323e-23
-1.16673e-23
-1.6278e-23
-1.60046e-23
-1.26631e-23
-5.52559e-24
)
;
    }
    frontAndBack
    {
        type            empty;
    }
}


// ************************************************************************* //
