/*--------------------------------*- C++ -*----------------------------------*\
| =========                 |                                                 |
| \\      /  F ield         | OpenFOAM: The Open Source CFD Toolbox           |
|  \\    /   O peration     | Version:  2506                                  |
|   \\  /    A nd           | Website:  www.openfoam.com                      |
|    \\/     M anipulation  |                                                 |
\*---------------------------------------------------------------------------*/
FoamFile
{
    version     2.0;
    format      ascii;
    arch        "LSB;label=32;scalar=64";
    class       volVectorField;
    location    "3.625";
    object      UNear;
}
// * * * * * * * * * * * * * * * * * * * * * * * * * * * * * * * * * * * * * //

dimensions      [0 1 -1 0 0 0 0];

internalField   nonuniform List<vector> 
400
(
(-1 1.82187e-07 0)
(-1 -4.20139e-08 0)
(-1 9.95819e-09 0)
(-1 -2.28997e-09 0)
(-1 5.35297e-10 0)
(-1 -1.24267e-10 0)
(-1 2.86652e-11 0)
(-1 -6.57511e-12 0)
(-1 1.56235e-12 0)
(-1 -3.18613e-13 0)
(-1 1.01957e-13 0)
(-1 1.29118e-15 0)
(-1 2.14462e-14 0)
(-1 1.41754e-14 0)
(-1 1.24581e-14 0)
(-1 1.01985e-14 0)
(-1 1.03844e-14 0)
(-1 9.22387e-15 0)
(-1 4.96725e-15 0)
(-1 -6.2264e-15 0)
(-1 -1.82946e-07 0)
(-1 4.22889e-08 0)
(-1 -9.9998e-09 0)
(-1 2.3083e-09 0)
(-1 -5.36448e-10 0)
(-1 1.25314e-10 0)
(-1 -2.82341e-11 0)
(-1 6.76433e-12 0)
(-1 -1.3852e-12 0)
(-1 4.21011e-13 0)
(-1 -1.11391e-14 0)
(-1 7.35496e-14 0)
(-1 4.8163e-14 0)
(-1 4.57016e-14 0)
(-1 3.66199e-14 0)
(-1 2.95176e-14 0)
(-1 2.91036e-14 0)
(-1 3.18024e-14 0)
(-1 1.16621e-14 0)
(-1 -1.80678e-14 0)
(-1 1.84398e-07 0)
(-1 -4.28085e-08 0)
(-1 1.01375e-08 0)
(-1 -2.34907e-09 0)
(-1 5.50892e-10 0)
(-1 -1.27904e-10 0)
(-1 2.99183e-11 0)
(-1 -6.66905e-12 0)
(-1 1.73913e-12 0)
(-1 -2.37338e-13 0)
(-1 1.85131e-13 0)
(-1 7.28115e-14 0)
(-1 8.87166e-14 0)
(-1 7.24794e-14 0)
(-1 6.05717e-14 0)
(-1 4.87721e-14 0)
(-1 4.80029e-14 0)
(-1 5.06214e-14 0)
(-1 1.92908e-14 0)
(-1 -2.93757e-14 0)
(-1 -1.8653e-07 0)
(-1 4.349e-08 0)
(-1 -1.0301e-08 0)
(-1 2.39945e-09 0)
(-1 -5.63068e-10 0)
(-1 1.3222e-10 0)
(-1 -3.03237e-11 0)
(-1 7.38007e-12 0)
(-1 -1.47031e-12 0)
(-1 5.3303e-13 0)
(-1 4.51214e-14 0)
(-1 1.4091e-13 0)
(-1 1.09214e-13 0)
(-1 1.00358e-13 0)
(-1 8.19541e-14 0)
(-1 6.6462e-14 0)
(-1 6.46994e-14 0)
(-1 6.9783e-14 0)
(-1 2.57727e-14 0)
(-1 -3.97236e-14 0)
(-1 1.8932e-07 0)
(-1 -4.43448e-08 0)
(-1 1.05083e-08 0)
(-1 -2.4599e-09 0)
(-1 5.79873e-10 0)
(-1 -1.3601e-10 0)
(-1 3.20913e-11 0)
(-1 -7.26635e-12 0)
(-1 1.94123e-12 0)
(-1 -2.33429e-13 0)
(-1 2.51669e-13 0)
(-1 1.25112e-13 0)
(-1 1.44763e-13 0)
(-1 1.21617e-13 0)
(-1 1.02006e-13 0)
(-1 8.25311e-14 0)
(-1 8.06861e-14 0)
(-1 8.56126e-14 0)
(-1 3.18837e-14 0)
(-1 -4.90467e-14 0)
(-1 -1.92681e-07 0)
(-1 4.53096e-08 0)
(-1 -1.07405e-08 0)
(-1 2.52487e-09 0)
(-1 -5.96313e-10 0)
(-1 1.40868e-10 0)
(-1 -3.28228e-11 0)
(-1 8.02976e-12 0)
(-1 -1.61963e-12 0)
(-1 6.24692e-13 0)
(-1 7.93286e-14 0)
(-1 1.94421e-13 0)
(-1 1.57933e-13 0)
(-1 1.45103e-13 0)
(-1 1.18888e-13 0)
(-1 9.65562e-14 0)
(-1 9.3691e-14 0)
(-1 9.99018e-14 0)
(-1 3.65601e-14 0)
(-1 -5.69809e-14 0)
(-1 1.96536e-07 0)
(-1 -4.63825e-08 0)
(-1 1.09957e-08 0)
(-1 -2.59504e-09 0)
(-1 6.14428e-10 0)
(-1 -1.45009e-10 0)
(-1 3.45641e-11 0)
(-1 -7.86358e-12 0)
(-1 2.154e-12 0)
(-1 -2.33049e-13 0)
(-1 3.11275e-13 0)
(-1 1.687e-13 0)
(-1 1.91061e-13 0)
(-1 1.61053e-13 0)
(-1 1.34691e-13 0)
(-1 1.08625e-13 0)
(-1 1.05317e-13 0)
(-1 1.10759e-13 0)
(-1 4.032e-14 0)
(-1 -6.35011e-14 0)
(-1 -2.00786e-07 0)
(-1 4.75253e-08 0)
(-1 -1.12669e-08 0)
(-1 2.66781e-09 0)
(-1 -6.31916e-10 0)
(-1 1.50177e-10 0)
(-1 -3.51822e-11 0)
(-1 8.71656e-12 0)
(-1 -1.72348e-12 0)
(-1 7.22618e-13 0)
(-1 1.17805e-13 0)
(-1 2.43173e-13 0)
(-1 1.98625e-13 0)
(-1 1.80357e-13 0)
(-1 1.46988e-13 0)
(-1 1.18689e-13 0)
(-1 1.14019e-13 0)
(-1 1.19562e-13 0)
(-1 4.29159e-14 0)
(-1 -6.84653e-14 0)
(-1 2.05295e-07 0)
(-1 -4.87132e-08 0)
(-1 1.15498e-08 0)
(-1 -2.74089e-09 0)
(-1 6.50953e-10 0)
(-1 -1.53987e-10 0)
(-1 3.70812e-11 0)
(-1 -8.35927e-12 0)
(-1 2.38658e-12 0)
(-1 -2.0937e-13 0)
(-1 3.74311e-13 0)
(-1 2.10416e-13 0)
(-1 2.29318e-13 0)
(-1 1.91124e-13 0)
(-1 1.58311e-13 0)
(-1 1.26707e-13 0)
(-1 1.21105e-13 0)
(-1 1.25352e-13 0)
(-1 4.4553e-14 0)
(-1 -7.17194e-14 0)
(-1 -2.09972e-07 0)
(-1 4.99295e-08 0)
(-1 -1.1837e-08 0)
(-1 2.81642e-09 0)
(-1 -6.68166e-10 0)
(-1 1.59509e-10 0)
(-1 -3.73738e-11 0)
(-1 9.41302e-12 0)
(-1 -1.78202e-12 0)
(-1 8.30266e-13 0)
(-1 1.62673e-13 0)
(-1 2.88186e-13 0)
(-1 2.31361e-13 0)
(-1 2.05751e-13 0)
(-1 1.65528e-13 0)
(-1 1.32626e-13 0)
(-1 1.25345e-13 0)
(-1 1.28329e-13 0)
(-1 4.54209e-14 0)
(-1 -7.34122e-14 0)
(-1 2.14639e-07 0)
(-1 -5.1124e-08 0)
(-1 1.21225e-08 0)
(-1 -2.88722e-09 0)
(-1 6.87224e-10 0)
(-1 -1.6267e-10 0)
(-1 3.95165e-11 0)
(-1 -8.78853e-12 0)
(-1 2.62232e-12 0)
(-1 -1.73559e-13 0)
(-1 4.36301e-13 0)
(-1 2.47158e-13 0)
(-1 2.57938e-13 0)
(-1 2.1058e-13 0)
(-1 1.71647e-13 0)
(-1 1.35567e-13 0)
(-1 1.27235e-13 0)
(-1 1.29108e-13 0)
(-1 4.50506e-14 0)
(-1 -7.35698e-14 0)
(-1 -2.19244e-07 0)
(-1 5.22995e-08 0)
(-1 -1.23987e-08 0)
(-1 2.95967e-09 0)
(-1 -7.02773e-10 0)
(-1 1.68329e-10 0)
(-1 -3.93758e-11 0)
(-1 1.00684e-11 0)
(-1 -1.82316e-12 0)
(-1 9.3034e-13 0)
(-1 2.01305e-13 0)
(-1 3.22104e-13 0)
(-1 2.51039e-13 0)
(-1 2.18151e-13 0)
(-1 1.72653e-13 0)
(-1 1.36512e-13 0)
(-1 1.2673e-13 0)
(-1 1.2707e-13 0)
(-1 4.46542e-14 0)
(-1 -7.23593e-14 0)
(-1 2.23595e-07 0)
(-1 -5.33921e-08 0)
(-1 1.26609e-08 0)
(-1 -3.0225e-09 0)
(-1 7.20505e-10 0)
(-1 -1.70554e-10 0)
(-1 4.16991e-11 0)
(-1 -9.16772e-12 0)
(-1 2.82716e-12 0)
(-1 -1.48582e-13 0)
(-1 4.79782e-13 0)
(-1 2.66108e-13 0)
(-1 2.68364e-13 0)
(-1 2.13654e-13 0)
(-1 1.71442e-13 0)
(-1 1.33852e-13 0)
(-1 1.23471e-13 0)
(-1 1.23337e-13 0)
(-1 4.28894e-14 0)
(-1 -6.9645e-14 0)
(-1 -2.2769e-07 0)
(-1 5.44252e-08 0)
(-1 -1.29024e-08 0)
(-1 3.08625e-09 0)
(-1 -7.33196e-10 0)
(-1 1.76e-10 0)
(-1 -4.11071e-11 0)
(-1 1.06158e-11 0)
(-1 -1.87351e-12 0)
(-1 9.96571e-13 0)
(-1 2.14382e-13 0)
(-1 3.30683e-13 0)
(-1 2.47842e-13 0)
(-1 2.11047e-13 0)
(-1 1.64188e-13 0)
(-1 1.28422e-13 0)
(-1 1.17465e-13 0)
(-1 1.15638e-13 0)
(-1 4.10515e-14 0)
(-1 -6.54869e-14 0)
(-1 2.31337e-07 0)
(-1 -5.53267e-08 0)
(-1 1.31197e-08 0)
(-1 -3.1364e-09 0)
(-1 7.4835e-10 0)
(-1 -1.77118e-10 0)
(-1 4.34619e-11 0)
(-1 -9.50785e-12 0)
(-1 2.95968e-12 0)
(-1 -1.60174e-13 0)
(-1 4.84138e-13 0)
(-1 2.53052e-13 0)
(-1 2.50577e-13 0)
(-1 1.94187e-13 0)
(-1 1.53646e-13 0)
(-1 1.1838e-13 0)
(-1 1.07826e-13 0)
(-1 1.06401e-13 0)
(-1 3.72112e-14 0)
(-1 -5.93161e-14 0)
(-1 -2.34578e-07 0)
(-1 5.6136e-08 0)
(-1 -1.33074e-08 0)
(-1 3.1868e-09 0)
(-1 -7.57214e-10 0)
(-1 1.81976e-10 0)
(-1 -4.24833e-11 0)
(-1 1.09849e-11 0)
(-1 -1.96335e-12 0)
(-1 9.96515e-13 0)
(-1 1.80312e-13 0)
(-1 2.97428e-13 0)
(-1 2.11277e-13 0)
(-1 1.77256e-13 0)
(-1 1.35396e-13 0)
(-1 1.04963e-13 0)
(-1 9.51718e-14 0)
(-1 9.20366e-14 0)
(-1 3.25925e-14 0)
(-1 -5.15788e-14 0)
(-1 2.37238e-07 0)
(-1 -5.67845e-08 0)
(-1 1.34649e-08 0)
(-1 -3.22099e-09 0)
(-1 7.68962e-10 0)
(-1 -1.81953e-10 0)
(-1 4.46529e-11 0)
(-1 -9.84232e-12 0)
(-1 2.96474e-12 0)
(-1 -2.46493e-13 0)
(-1 4.20351e-13 0)
(-1 1.8777e-13 0)
(-1 1.9108e-13 0)
(-1 1.42803e-13 0)
(-1 1.11924e-13 0)
(-1 8.55021e-14 0)
(-1 7.78325e-14 0)
(-1 7.65981e-14 0)
(-1 2.62725e-14 0)
(-1 -4.28081e-14 0)
(-1 -2.39389e-07 0)
(-1 5.73157e-08 0)
(-1 -1.35852e-08 0)
(-1 3.25609e-09 0)
(-1 -7.73547e-10 0)
(-1 1.85978e-10 0)
(-1 -4.35796e-11 0)
(-1 1.10909e-11 0)
(-1 -2.1587e-12 0)
(-1 8.92899e-13 0)
(-1 7.27763e-14 0)
(-1 2.09673e-13 0)
(-1 1.33542e-13 0)
(-1 1.14007e-13 0)
(-1 8.53245e-14 0)
(-1 6.65226e-14 0)
(-1 6.03698e-14 0)
(-1 5.79264e-14 0)
(-1 2.0867e-14 0)
(-1 -3.37634e-14 0)
(-1 2.40893e-07 0)
(-1 -5.76759e-08 0)
(-1 1.36737e-08 0)
(-1 -3.26899e-09 0)
(-1 7.80056e-10 0)
(-1 -1.84647e-10 0)
(-1 4.48805e-11 0)
(-1 -1.02003e-11 0)
(-1 2.78254e-12 0)
(-1 -4.11717e-13 0)
(-1 2.89628e-13 0)
(-1 7.96322e-14 0)
(-1 1.00193e-13 0)
(-1 6.94505e-14 0)
(-1 5.49682e-14 0)
(-1 4.15159e-14 0)
(-1 3.89199e-14 0)
(-1 4.177e-14 0)
(-1 1.78752e-14 0)
(-1 -2.32737e-14 0)
(-1 -2.42037e-07 0)
(-1 5.81787e-08 0)
(-1 -1.38006e-08 0)
(-1 3.31659e-09 0)
(-1 -7.9183e-10 0)
(-1 1.8969e-10 0)
(-1 -4.53914e-11 0)
(-1 1.10437e-11 0)
(-1 -2.53684e-12 0)
(-1 7.00124e-13 0)
(-1 -1.03684e-13 0)
(-1 7.46658e-14 0)
(-1 2.07973e-14 0)
(-1 2.48774e-14 0)
(-1 1.65324e-14 0)
(-1 1.30988e-14 0)
(-1 1.36924e-14 0)
(-1 1.67627e-14 0)
(-1 8.78067e-15 0)
(-1 -8.62172e-15 0)
)
;

boundaryField
{
    movingWall
    {
        type            fixedValue;
        value           uniform (-1 -0 -0);
    }
    fixedWalls
    {
        type            calculated;
        value           nonuniform List<vector> 
60
(
(-1 7.28749e-08 0)
(-1 -7.31783e-08 0)
(-1 7.37591e-08 0)
(-1 -7.46121e-08 0)
(-1 7.5728e-08 0)
(-1 -7.70724e-08 0)
(-1 7.86145e-08 0)
(-1 -8.03143e-08 0)
(-1 8.21179e-08 0)
(-1 -8.39887e-08 0)
(-1 8.58556e-08 0)
(-1 -8.76976e-08 0)
(-1 8.9438e-08 0)
(-1 -9.1076e-08 0)
(-1 9.25348e-08 0)
(-1 -9.38312e-08 0)
(-1 9.48951e-08 0)
(-1 -9.57557e-08 0)
(-1 9.63571e-08 0)
(-1 -9.6815e-08 0)
(-1 -2.49056e-15 0)
(-1 -7.22711e-15 0)
(-1 -1.17503e-14 0)
(-1 -1.58894e-14 0)
(-1 -1.96187e-14 0)
(-1 -2.27924e-14 0)
(-1 -2.54004e-14 0)
(-1 -2.73861e-14 0)
(-1 -2.86878e-14 0)
(-1 -2.93649e-14 0)
(-1 -2.94279e-14 0)
(-1 -2.89437e-14 0)
(-1 -2.7858e-14 0)
(-1 -2.61948e-14 0)
(-1 -2.37264e-14 0)
(-1 -2.06315e-14 0)
(-1 -1.71232e-14 0)
(-1 -1.35053e-14 0)
(-1 -9.30947e-15 0)
(-1 -3.44869e-15 0)
(-1 7.28749e-08 0)
(-1 -1.68056e-08 0)
(-1 3.98328e-09 0)
(-1 -9.15988e-10 0)
(-1 2.14119e-10 0)
(-1 -4.97067e-11 0)
(-1 1.14661e-11 0)
(-1 -2.63004e-12 0)
(-1 6.24939e-13 0)
(-1 -1.27445e-13 0)
(-1 4.07827e-14 0)
(-1 5.16473e-16 0)
(-1 8.57847e-15 0)
(-1 5.67017e-15 0)
(-1 4.98325e-15 0)
(-1 4.0794e-15 0)
(-1 4.15374e-15 0)
(-1 3.68955e-15 0)
(-1 1.9869e-15 0)
(-1 -2.49056e-15 0)
)
;
    }
    frontAndBack
    {
        type            empty;
    }
}


// ************************************************************************* //
