/*--------------------------------*- C++ -*----------------------------------*\
| =========                 |                                                 |
| \\      /  F ield         | OpenFOAM: The Open Source CFD Toolbox           |
|  \\    /   O peration     | Version:  2506                                  |
|   \\  /    A nd           | Website:  www.openfoam.com                      |
|    \\/     M anipulation  |                                                 |
\*---------------------------------------------------------------------------*/
FoamFile
{
    version     2.0;
    format      ascii;
    arch        "LSB;label=32;scalar=64";
    class       volVectorField;
    location    "3.625";
    object      vorticityField;
}
// * * * * * * * * * * * * * * * * * * * * * * * * * * * * * * * * * * * * * //

dimensions      [0 0 -1 0 0 0 0];

internalField   nonuniform List<vector> 
400
(
(0 -0 1.50553e-05)
(0 -0 -1.74485e-05)
(0 -0 4.07123e-06)
(0 -0 -9.63994e-07)
(0 -0 2.24183e-07)
(0 -0 -5.29207e-08)
(0 -0 1.2259e-08)
(0 -0 -2.96529e-09)
(0 -0 6.16651e-10)
(0 -0 -2.06266e-10)
(0 -0 -1.40299e-12)
(0 -0 -3.91948e-11)
(0 -0 -2.16153e-11)
(0 -0 -1.81105e-11)
(0 -0 -1.25679e-11)
(0 -0 -8.55573e-12)
(0 -0 -4.70532e-12)
(0 -0 -6.23026e-13)
(0 -0 2.00574e-12)
(0 -0 9.11961e-13)
(0 -0 -1.59495e-05)
(0 -0 1.7694e-05)
(0 -0 -4.17294e-06)
(0 -0 9.83665e-07)
(0 -0 -2.31766e-07)
(0 -0 5.45618e-08)
(0 -0 -1.284e-08)
(0 -0 3.01414e-09)
(0 -0 -7.10443e-10)
(0 -0 1.65162e-10)
(0 -0 -3.95166e-11)
(0 -0 9.1015e-12)
(0 -0 -2.43243e-12)
(0 -0 -4.49582e-13)
(0 -0 -1.21182e-12)
(0 -0 -4.80576e-13)
(0 -0 3.36895e-13)
(0 -0 -1.71704e-12)
(0 -0 -5.06833e-12)
(0 -0 5.32143e-13)
(0 -0 1.56885e-05)
(0 -0 -1.77369e-05)
(0 -0 4.18309e-06)
(0 -0 -9.86375e-07)
(0 -0 2.32564e-07)
(0 -0 -5.48288e-08)
(0 -0 1.29185e-08)
(0 -0 -3.04625e-09)
(0 -0 7.15325e-10)
(0 -0 -1.68952e-10)
(0 -0 3.98783e-11)
(0 -0 -8.63853e-12)
(0 -0 2.1623e-12)
(0 -0 -1.70318e-12)
(0 -0 -1.53047e-12)
(0 -0 -7.41882e-13)
(0 -0 5.91503e-13)
(0 -0 -2.817e-12)
(0 -0 -8.32497e-12)
(0 -0 9.54274e-13)
(0 -0 -1.54986e-05)
(0 -0 1.78618e-05)
(0 -0 -4.21585e-06)
(0 -0 9.94961e-07)
(0 -0 -2.34827e-07)
(0 -0 5.54155e-08)
(0 -0 -1.30839e-08)
(0 -0 3.08375e-09)
(0 -0 -7.30241e-10)
(0 -0 1.71249e-10)
(0 -0 -4.02148e-11)
(0 -0 1.03124e-11)
(0 -0 -2.37472e-12)
(0 -0 -1.04549e-12)
(0 -0 -2.33251e-12)
(0 -0 -9.39429e-13)
(0 -0 7.92885e-13)
(0 -0 -3.81136e-12)
(0 -0 -1.12488e-11)
(0 -0 1.31377e-12)
(0 -0 1.53321e-05)
(0 -0 -1.8043e-05)
(0 -0 4.2623e-06)
(0 -0 -1.00684e-06)
(0 -0 2.37846e-07)
(0 -0 -5.61973e-08)
(0 -0 1.32703e-08)
(0 -0 -3.1407e-09)
(0 -0 7.38501e-10)
(0 -0 -1.76166e-10)
(0 -0 4.14106e-11)
(0 -0 -8.98304e-12)
(0 -0 2.00866e-12)
(0 -0 -2.64935e-12)
(0 -0 -2.60758e-12)
(0 -0 -1.23753e-12)
(0 -0 9.58662e-13)
(0 -0 -4.6905e-12)
(0 -0 -1.39267e-11)
(0 -0 1.60788e-12)
(0 -0 -1.52691e-05)
(0 -0 1.82926e-05)
(0 -0 -4.32509e-06)
(0 -0 1.02256e-06)
(0 -0 -2.41792e-07)
(0 -0 5.71682e-08)
(0 -0 -1.3528e-08)
(0 -0 3.19312e-09)
(0 -0 -7.59643e-10)
(0 -0 1.7735e-10)
(0 -0 -4.25663e-11)
(0 -0 1.06252e-11)
(0 -0 -3.03441e-12)
(0 -0 -2.19691e-12)
(0 -0 -3.63499e-12)
(0 -0 -1.59811e-12)
(0 -0 9.03764e-13)
(0 -0 -5.68598e-12)
(0 -0 -1.61219e-11)
(0 -0 1.90655e-12)
(0 -0 1.52841e-05)
(0 -0 -1.85988e-05)
(0 -0 4.40144e-06)
(0 -0 -1.04156e-06)
(0 -0 2.46492e-07)
(0 -0 -5.83507e-08)
(0 -0 1.38029e-08)
(0 -0 -3.27489e-09)
(0 -0 7.70372e-10)
(0 -0 -1.85275e-10)
(0 -0 4.28583e-11)
(0 -0 -1.00428e-11)
(0 -0 1.3224e-12)
(0 -0 -4.03775e-12)
(0 -0 -3.99598e-12)
(0 -0 -2.01585e-12)
(0 -0 8.36751e-13)
(0 -0 -6.3913e-12)
(0 -0 -1.79681e-11)
(0 -0 2.20969e-12)
(0 -0 -1.53827e-05)
(0 -0 1.8955e-05)
(0 -0 -4.48954e-06)
(0 -0 1.06329e-06)
(0 -0 -2.51865e-07)
(0 -0 5.96528e-08)
(0 -0 -1.41429e-08)
(0 -0 3.34245e-09)
(0 -0 -7.98121e-10)
(0 -0 1.8543e-10)
(0 -0 -4.56948e-11)
(0 -0 1.03317e-11)
(0 -0 -4.19453e-12)
(0 -0 -3.45609e-12)
(0 -0 -4.97419e-12)
(0 -0 -2.51088e-12)
(0 -0 6.29418e-13)
(0 -0 -7.11028e-12)
(0 -0 -1.94261e-11)
(0 -0 2.41942e-12)
(0 -0 1.55337e-05)
(0 -0 -1.93428e-05)
(0 -0 4.58493e-06)
(0 -0 -1.08674e-06)
(0 -0 2.57596e-07)
(0 -0 -6.10803e-08)
(0 -0 1.44702e-08)
(0 -0 -3.44065e-09)
(0 -0 8.08837e-10)
(0 -0 -1.96538e-10)
(0 -0 4.39573e-11)
(0 -0 -1.17074e-11)
(0 -0 3.20551e-13)
(0 -0 -5.25765e-12)
(0 -0 -5.05942e-12)
(0 -0 -2.74476e-12)
(0 -0 4.33695e-13)
(0 -0 -7.65521e-12)
(0 -0 -2.02221e-11)
(0 -0 2.60822e-12)
(0 -0 -1.5723e-05)
(0 -0 1.97521e-05)
(0 -0 -4.68518e-06)
(0 -0 1.11122e-06)
(0 -0 -2.63598e-07)
(0 -0 6.25199e-08)
(0 -0 -1.4845e-08)
(0 -0 3.51217e-09)
(0 -0 -8.41091e-10)
(0 -0 1.94225e-10)
(0 -0 -4.95189e-11)
(0 -0 9.76905e-12)
(0 -0 -5.58719e-12)
(0 -0 -4.63169e-12)
(0 -0 -5.90309e-12)
(0 -0 -3.0425e-12)
(0 -0 1.66683e-13)
(0 -0 -8.04666e-12)
(0 -0 -2.07162e-11)
(0 -0 2.6636e-12)
(0 -0 1.59356e-05)
(0 -0 -2.01651e-05)
(0 -0 4.78581e-06)
(0 -0 -1.13576e-06)
(0 -0 2.69545e-07)
(0 -0 -6.39926e-08)
(0 -0 1.51779e-08)
(0 -0 -3.61401e-09)
(0 -0 8.49788e-10)
(0 -0 -2.07815e-10)
(0 -0 4.52159e-11)
(0 -0 -1.35808e-11)
(0 -0 -8.11739e-13)
(0 -0 -6.40653e-12)
(0 -0 -6.11896e-12)
(0 -0 -3.57381e-12)
(0 -0 -1.57995e-13)
(0 -0 -8.29973e-12)
(0 -0 -2.08099e-11)
(0 -0 2.7435e-12)
(0 -0 -1.61603e-05)
(0 -0 2.05758e-05)
(0 -0 -4.88572e-06)
(0 -0 1.15999e-06)
(0 -0 -2.7545e-07)
(0 -0 6.53978e-08)
(0 -0 -1.55437e-08)
(0 -0 3.68094e-09)
(0 -0 -8.82937e-10)
(0 -0 2.03232e-10)
(0 -0 -5.2936e-11)
(0 -0 9.17469e-12)
(0 -0 -6.6006e-12)
(0 -0 -5.37208e-12)
(0 -0 -6.51047e-12)
(0 -0 -3.53515e-12)
(0 -0 -3.20789e-13)
(0 -0 -8.2618e-12)
(0 -0 -2.0485e-11)
(0 -0 2.6892e-12)
(0 -0 1.63896e-05)
(0 -0 -2.09669e-05)
(0 -0 4.9804e-06)
(0 -0 -1.18294e-06)
(0 -0 2.80979e-07)
(0 -0 -6.67619e-08)
(0 -0 1.58485e-08)
(0 -0 -3.77628e-09)
(0 -0 8.88605e-10)
(0 -0 -2.1796e-10)
(0 -0 4.67274e-11)
(0 -0 -1.48806e-11)
(0 -0 -1.20678e-12)
(0 -0 -6.65639e-12)
(0 -0 -6.05568e-12)
(0 -0 -3.52315e-12)
(0 -0 -4.82311e-13)
(0 -0 -8.00398e-12)
(0 -0 -1.97319e-11)
(0 -0 2.56715e-12)
(0 -0 -1.66106e-05)
(0 -0 2.13363e-05)
(0 -0 -5.06982e-06)
(0 -0 1.20452e-06)
(0 -0 -2.86215e-07)
(0 -0 6.80001e-08)
(0 -0 -1.61714e-08)
(0 -0 3.83324e-09)
(0 -0 -9.19318e-10)
(0 -0 2.11933e-10)
(0 -0 -5.54487e-11)
(0 -0 9.28196e-12)
(0 -0 -7.0847e-12)
(0 -0 -5.16699e-12)
(0 -0 -6.12122e-12)
(0 -0 -3.37131e-12)
(0 -0 -5.19422e-13)
(0 -0 -7.6142e-12)
(0 -0 -1.87359e-11)
(0 -0 2.30801e-12)
(0 -0 1.68242e-05)
(0 -0 -2.16684e-05)
(0 -0 5.14984e-06)
(0 -0 -1.22383e-06)
(0 -0 2.90846e-07)
(0 -0 -6.91392e-08)
(0 -0 1.64235e-08)
(0 -0 -3.91318e-09)
(0 -0 9.22733e-10)
(0 -0 -2.25382e-10)
(0 -0 4.88578e-11)
(0 -0 -1.53872e-11)
(0 -0 -8.72086e-13)
(0 -0 -6.14238e-12)
(0 -0 -5.27672e-12)
(0 -0 -3.17256e-12)
(0 -0 -4.39016e-13)
(0 -0 -6.9259e-12)
(0 -0 -1.70325e-11)
(0 -0 2.04786e-12)
(0 -0 -1.70157e-05)
(0 -0 2.19642e-05)
(0 -0 -5.22117e-06)
(0 -0 1.24098e-06)
(0 -0 -2.9499e-07)
(0 -0 7.01145e-08)
(0 -0 -1.66779e-08)
(0 -0 3.95691e-09)
(0 -0 -9.47634e-10)
(0 -0 2.19733e-10)
(0 -0 -5.66543e-11)
(0 -0 9.9812e-12)
(0 -0 -6.56913e-12)
(0 -0 -4.03733e-12)
(0 -0 -4.92536e-12)
(0 -0 -2.45033e-12)
(0 -0 -4.25245e-13)
(0 -0 -6.14951e-12)
(0 -0 -1.47681e-11)
(0 -0 1.81732e-12)
(0 -0 1.71816e-05)
(0 -0 -2.2208e-05)
(0 -0 5.27958e-06)
(0 -0 -1.255e-06)
(0 -0 2.98332e-07)
(0 -0 -7.09336e-08)
(0 -0 1.68565e-08)
(0 -0 -4.01499e-09)
(0 -0 9.48849e-10)
(0 -0 -2.30505e-10)
(0 -0 5.0826e-11)
(0 -0 -1.53377e-11)
(0 -0 -1.32732e-13)
(0 -0 -4.90694e-12)
(0 -0 -3.9683e-12)
(0 -0 -2.51466e-12)
(0 -0 -6.19357e-13)
(0 -0 -5.26442e-12)
(0 -0 -1.21304e-11)
(0 -0 1.65356e-12)
(0 -0 -1.73534e-05)
(0 -0 2.24153e-05)
(0 -0 -5.32944e-06)
(0 -0 1.26695e-06)
(0 -0 -3.01212e-07)
(0 -0 7.16094e-08)
(0 -0 -1.70321e-08)
(0 -0 4.04516e-09)
(0 -0 -9.6594e-10)
(0 -0 2.26428e-10)
(0 -0 -5.64507e-11)
(0 -0 1.13079e-11)
(0 -0 -5.06717e-12)
(0 -0 -2.24679e-12)
(0 -0 -3.04078e-12)
(0 -0 -1.43837e-12)
(0 -0 -1.0067e-13)
(0 -0 -3.95028e-12)
(0 -0 -9.68398e-12)
(0 -0 1.20832e-12)
(0 -0 1.74253e-05)
(0 -0 -2.2564e-05)
(0 -0 5.36915e-06)
(0 -0 -1.27745e-06)
(0 -0 3.03948e-07)
(0 -0 -7.233e-08)
(0 -0 1.72081e-08)
(0 -0 -4.09793e-09)
(0 -0 9.73438e-10)
(0 -0 -2.32811e-10)
(0 -0 5.49353e-11)
(0 -0 -1.29532e-11)
(0 -0 2.91206e-12)
(0 -0 -1.3512e-12)
(0 -0 -3.26894e-13)
(0 -0 6.44884e-13)
(0 -0 1.70592e-12)
(0 -0 -1.7521e-12)
(0 -0 -7.2362e-12)
(0 -0 1.87478e-13)
(0 -0 -1.78953e-05)
(0 -0 2.27422e-05)
(0 -0 -5.45113e-06)
(0 -0 1.29536e-06)
(0 -0 -3.11147e-07)
(0 -0 7.3954e-08)
(0 -0 -1.79778e-08)
(0 -0 4.11692e-09)
(0 -0 -1.1369e-09)
(0 -0 1.61919e-10)
(0 -0 -1.23153e-10)
(0 -0 -3.31967e-11)
(0 -0 -3.84536e-11)
(0 -0 -2.39266e-11)
(0 -0 -1.67091e-11)
(0 -0 -1.06652e-11)
(0 -0 -6.32855e-12)
(0 -0 -1.27722e-12)
(0 -0 2.17783e-12)
(0 -0 1.28515e-12)
)
;

boundaryField
{
    movingWall
    {
        type            calculated;
        value           nonuniform List<vector> 
20
(
(0 -0 -2.00921e-05)
(0 -0 2.32212e-05)
(0 -0 -5.66732e-06)
(0 -0 1.3421e-06)
(0 -0 -3.28714e-07)
(0 -0 7.83762e-08)
(0 -0 -1.95304e-08)
(0 -0 4.36646e-09)
(0 -0 -1.36849e-09)
(0 -0 1.05648e-10)
(0 -0 -2.00036e-10)
(0 -0 -8.12547e-11)
(0 -0 -7.66548e-11)
(0 -0 -5.06086e-11)
(0 -0 -3.52839e-11)
(0 -0 -2.36431e-11)
(0 -0 -1.50879e-11)
(0 -0 -2.6228e-12)
(0 -0 7.72002e-12)
(0 -0 3.09273e-12)
)
;
    }
    fixedWalls
    {
        type            calculated;
        value           nonuniform List<vector> 
60
(
(0 -0 7.39129e-05)
(0 -0 -7.50621e-05)
(0 -0 7.52886e-05)
(0 -0 -7.58067e-05)
(0 -0 7.65626e-05)
(0 -0 -7.76044e-05)
(0 -0 7.88833e-05)
(0 -0 -8.03709e-05)
(0 -0 8.19934e-05)
(0 -0 -8.37075e-05)
(0 -0 8.54397e-05)
(0 -0 -8.71635e-05)
(0 -0 8.88072e-05)
(0 -0 -9.03601e-05)
(0 -0 9.1758e-05)
(0 -0 -9.30027e-05)
(0 -0 9.40313e-05)
(0 -0 -9.49018e-05)
(0 -0 9.54606e-05)
(0 -0 -9.63244e-05)
(0 -0 3.2766e-12)
(0 -0 7.11869e-12)
(0 -0 1.16961e-11)
(0 -0 1.58081e-11)
(0 -0 1.95103e-11)
(0 -0 2.26568e-11)
(0 -0 2.5292e-11)
(0 -0 2.72506e-11)
(0 -0 2.85793e-11)
(0 -0 2.92293e-11)
(0 -0 2.93195e-11)
(0 -0 2.88624e-11)
(0 -0 2.77496e-11)
(0 -0 2.60592e-11)
(0 -0 2.35638e-11)
(0 -0 2.05502e-11)
(0 -0 1.71232e-11)
(0 -0 1.3424e-11)
(0 -0 8.9571e-12)
(0 -0 4.74973e-12)
(0 -0 1.2162e-05)
(0 -0 -1.68968e-05)
(0 -0 3.82429e-06)
(0 -0 -9.211e-07)
(0 -0 2.07118e-07)
(0 -0 -4.90672e-08)
(0 -0 1.10935e-08)
(0 -0 -2.7297e-09)
(0 -0 4.76702e-10)
(0 -0 -2.32414e-10)
(0 -0 -4.59028e-11)
(0 -0 -6.81807e-11)
(0 -0 -4.56962e-11)
(0 -0 -3.53601e-11)
(0 -0 -2.50002e-11)
(0 -0 -1.69939e-11)
(0 -0 -9.82302e-12)
(0 -0 -7.19346e-13)
(0 -0 6.09331e-12)
(0 -0 1.81345e-12)
)
;
    }
    frontAndBack
    {
        type            empty;
    }
}


// ************************************************************************* //
