/*--------------------------------*- C++ -*----------------------------------*\
| =========                 |                                                 |
| \\      /  F ield         | OpenFOAM: The Open Source CFD Toolbox           |
|  \\    /   O peration     | Version:  2506                                  |
|   \\  /    A nd           | Website:  www.openfoam.com                      |
|    \\/     M anipulation  |                                                 |
\*---------------------------------------------------------------------------*/
FoamFile
{
    version     2.0;
    format      ascii;
    arch        "LSB;label=32;scalar=64";
    class       volScalarField;
    location    "3.625";
    object      zeroGradient(epsilon);
}
// * * * * * * * * * * * * * * * * * * * * * * * * * * * * * * * * * * * * * //

dimensions      [0 2 -3 0 0 0 0];

internalField   nonuniform List<scalar> 
400
(
3.53622e-05
3.53614e-05
3.53607e-05
3.53604e-05
3.53596e-05
3.53595e-05
3.53587e-05
3.53587e-05
3.5358e-05
3.53582e-05
3.53575e-05
3.53577e-05
3.53572e-05
3.53573e-05
3.5357e-05
3.5357e-05
3.53569e-05
3.53569e-05
3.53569e-05
3.53569e-05
5.28913e-05
5.08026e-05
5.09573e-05
5.10228e-05
5.11535e-05
5.12237e-05
5.13548e-05
5.14295e-05
5.15614e-05
5.16405e-05
5.17734e-05
5.18565e-05
5.19908e-05
5.20779e-05
5.22138e-05
5.23045e-05
5.24423e-05
5.25366e-05
5.26067e-05
5.27245e-05
7.84602e-05
7.48283e-05
7.50946e-05
7.52075e-05
7.54327e-05
7.55539e-05
7.57796e-05
7.59087e-05
7.61355e-05
7.62721e-05
7.65006e-05
7.66443e-05
7.6875e-05
7.70253e-05
7.72587e-05
7.74153e-05
7.76518e-05
7.78145e-05
7.79346e-05
7.81372e-05
0.000100522
9.53718e-05
9.5742e-05
9.58997e-05
9.62141e-05
9.63838e-05
9.66994e-05
9.6881e-05
9.71985e-05
9.73913e-05
9.77116e-05
9.7915e-05
9.82389e-05
9.84523e-05
9.87804e-05
9.90035e-05
9.93364e-05
9.95687e-05
9.97382e-05
0.000100026
0.000115285
0.000109045
0.000109489
0.000109677
0.000110055
0.000110259
0.000110638
0.000110856
0.000111238
0.000111471
0.000111856
0.000112102
0.000112492
0.000112751
0.000113147
0.000113417
0.000113819
0.000114102
0.000114306
0.000114655
0.00012401
0.000117105
0.000117592
0.0001178
0.000118215
0.00011844
0.000118857
0.000119098
0.000119519
0.000119776
0.0001202
0.000120473
0.000120903
0.000121189
0.000121625
0.000121925
0.000122369
0.000122682
0.000122908
0.000123293
0.000129037
0.000121743
0.000122255
0.000122474
0.000122911
0.000123148
0.000123587
0.000123842
0.000124284
0.000124556
0.000125003
0.000125291
0.000125744
0.000126046
0.000126506
0.000126824
0.000127291
0.000127623
0.000127861
0.000128268
0.000132116
0.000124583
0.000125111
0.000125337
0.000125787
0.000126031
0.000126484
0.000126747
0.000127204
0.000127484
0.000127945
0.000128242
0.000128709
0.000129022
0.000129496
0.000129824
0.000130307
0.000130649
0.000130895
0.000131315
0.000134273
0.000126573
0.000127112
0.000127342
0.000127802
0.000128052
0.000128514
0.000128782
0.000129248
0.000129535
0.000130006
0.000130309
0.000130787
0.000131106
0.000131591
0.000131926
0.000132419
0.000132769
0.00013302
0.00013345
0.000136047
0.00012821
0.000128758
0.000128991
0.000129459
0.000129713
0.000130183
0.000130456
0.00013093
0.000131221
0.000131701
0.000132009
0.000132495
0.00013282
0.000133313
0.000133654
0.000134156
0.000134512
0.000134768
0.000135205
0.00013772
0.000129753
0.00013031
0.000130547
0.000131022
0.00013128
0.000131757
0.000132034
0.000132516
0.000132812
0.000133299
0.000133612
0.000134106
0.000134436
0.000134937
0.000135284
0.000135794
0.000136156
0.000136416
0.000136861
0.000139451
0.00013135
0.000131915
0.000132156
0.000132638
0.0001329
0.000133385
0.000133667
0.000134156
0.000134457
0.000134952
0.000135271
0.000135772
0.000136108
0.000136617
0.00013697
0.000137488
0.000137857
0.000138121
0.000138573
0.000141341
0.000133093
0.000133667
0.000133913
0.000134404
0.00013467
0.000135163
0.00013545
0.000135948
0.000136254
0.000136757
0.000137082
0.000137592
0.000137934
0.000138452
0.000138812
0.000139339
0.000139714
0.000139983
0.000140443
0.000143473
0.000135058
0.000135643
0.000135893
0.000136393
0.000136665
0.000137168
0.00013746
0.000137967
0.000138279
0.000138792
0.000139123
0.000139644
0.000139993
0.000140521
0.000140888
0.000141425
0.000141808
0.000142083
0.000142552
0.000145929
0.000137321
0.000137919
0.000138174
0.000138685
0.000138962
0.000139476
0.000139775
0.000140293
0.000140612
0.000141137
0.000141475
0.000142007
0.000142364
0.000142904
0.000143279
0.000143829
0.000144221
0.000144502
0.000144982
0.000148811
0.000139974
0.000140586
0.000140848
0.000141372
0.000141656
0.000142183
0.000142489
0.00014302
0.000143348
0.000143885
0.000144233
0.000144778
0.000145145
0.000145698
0.000146084
0.000146647
0.00014705
0.000147338
0.000147831
0.000152209
0.000143103
0.000143733
0.000144002
0.00014454
0.000144833
0.000145375
0.00014569
0.000146237
0.000146574
0.000147128
0.000147485
0.000148047
0.000148424
0.000148995
0.000149392
0.000149972
0.000150388
0.000150684
0.000151192
0.000156052
0.000146645
0.000147293
0.00014757
0.000148125
0.000148427
0.000148986
0.000149311
0.000149875
0.000150223
0.000150794
0.000151164
0.000151743
0.000152133
0.000152722
0.000153133
0.000153732
0.000154162
0.000154468
0.000154993
0.00015972
0.000150269
0.000150903
0.000151176
0.000151722
0.000152023
0.000152574
0.000152902
0.000153461
0.000153815
0.000154382
0.000154761
0.000155339
0.000155742
0.000156332
0.000156759
0.000157363
0.000157813
0.000158123
0.000158663
0.000161059
0.000161053
0.000161051
0.000161048
0.000161046
0.000161044
0.000161042
0.000161041
0.000161039
0.000161038
0.000161038
0.000161037
0.000161036
0.000161036
0.000161036
0.000161036
0.000161035
0.000161036
0.000161035
0.000161035
)
;

boundaryField
{
    movingWall
    {
        type            zeroGradient;
    }
    fixedWalls
    {
        type            zeroGradient;
    }
    frontAndBack
    {
        type            empty;
    }
}


// ************************************************************************* //
