/*--------------------------------*- C++ -*----------------------------------*\
| =========                 |                                                 |
| \\      /  F ield         | OpenFOAM: The Open Source CFD Toolbox           |
|  \\    /   O peration     | Version:  2506                                  |
|   \\  /    A nd           | Website:  www.openfoam.com                      |
|    \\/     M anipulation  |                                                 |
\*---------------------------------------------------------------------------*/
FoamFile
{
    version     2.0;
    format      ascii;
    arch        "LSB;label=32;scalar=64";
    class       volVectorField;
    location    "9.375";
    object      diffU;
}
// * * * * * * * * * * * * * * * * * * * * * * * * * * * * * * * * * * * * * //

dimensions      [0 1 -1 0 0 0 0];

internalField   nonuniform List<vector> 
400
(
(0 0 0)
(2.63123e-14 -2.08949e-13 0)
(2.02061e-14 -1.62741e-13 0)
(2.07612e-14 -1.73532e-13 0)
(2.06501e-14 -1.71201e-13 0)
(2.06501e-14 -1.71616e-13 0)
(2.05391e-14 -1.71474e-13 0)
(2.03171e-14 -1.71529e-13 0)
(2.03171e-14 -1.71503e-13 0)
(2.02061e-14 -1.71489e-13 0)
(1.9873e-14 -1.71557e-13 0)
(2.02061e-14 -1.71552e-13 0)
(1.9984e-14 -1.71482e-13 0)
(1.9762e-14 -1.7151e-13 0)
(1.9873e-14 -1.71533e-13 0)
(1.9762e-14 -1.71511e-13 0)
(1.95399e-14 -1.71553e-13 0)
(1.9762e-14 -1.71598e-13 0)
(1.9762e-14 -1.71553e-13 0)
(1.9762e-14 -1.71609e-13 0)
(5.66214e-14 -1.58851e-13 0)
(9.54792e-15 -1.74129e-13 0)
(2.0095e-14 -1.70937e-13 0)
(1.90958e-14 -1.71688e-13 0)
(1.90958e-14 -1.71548e-13 0)
(1.93179e-14 -1.7157e-13 0)
(1.95399e-14 -1.71465e-13 0)
(1.95399e-14 -1.71454e-13 0)
(1.93179e-14 -1.71465e-13 0)
(1.9762e-14 -1.71504e-13 0)
(1.9873e-14 -1.71473e-13 0)
(1.95399e-14 -1.71472e-13 0)
(1.95399e-14 -1.71475e-13 0)
(1.95399e-14 -1.71567e-13 0)
(1.93179e-14 -1.71576e-13 0)
(1.95399e-14 -1.71475e-13 0)
(1.95399e-14 -1.71539e-13 0)
(1.93179e-14 -1.71709e-13 0)
(1.9762e-14 -1.71688e-13 0)
(1.9762e-14 -1.71597e-13 0)
(7.10543e-15 -3.32061e-13 0)
(2.29816e-14 -1.36672e-13 0)
(1.90958e-14 -1.79761e-13 0)
(1.95399e-14 -1.69699e-13 0)
(1.95399e-14 -1.71878e-13 0)
(1.93179e-14 -1.71518e-13 0)
(1.93179e-14 -1.71621e-13 0)
(1.93179e-14 -1.71585e-13 0)
(1.95399e-14 -1.71596e-13 0)
(1.95399e-14 -1.71681e-13 0)
(1.93179e-14 -1.71597e-13 0)
(1.9762e-14 -1.7155e-13 0)
(1.9873e-14 -1.71451e-13 0)
(2.02061e-14 -1.714e-13 0)
(1.9873e-14 -1.71458e-13 0)
(1.9762e-14 -1.71548e-13 0)
(1.9762e-14 -1.71638e-13 0)
(1.9762e-14 -1.71765e-13 0)
(1.9762e-14 -1.71804e-13 0)
(1.9762e-14 -1.71652e-13 0)
(-1.33227e-15 -5.74585e-14 0)
(2.54241e-14 -1.96852e-13 0)
(1.93179e-14 -1.65676e-13 0)
(2.0095e-14 -1.72875e-13 0)
(2.02061e-14 -1.71258e-13 0)
(2.0095e-14 -1.71582e-13 0)
(1.9984e-14 -1.71571e-13 0)
(1.9762e-14 -1.7165e-13 0)
(1.9762e-14 -1.71581e-13 0)
(1.95399e-14 -1.71522e-13 0)
(1.9762e-14 -1.71531e-13 0)
(1.90958e-14 -1.71634e-13 0)
(1.90958e-14 -1.71638e-13 0)
(1.93179e-14 -1.71614e-13 0)
(1.9873e-14 -1.71586e-13 0)
(1.9873e-14 -1.71603e-13 0)
(1.9873e-14 -1.71627e-13 0)
(1.9873e-14 -1.71648e-13 0)
(1.9984e-14 -1.71671e-13 0)
(1.9984e-14 -1.71676e-13 0)
(4.76286e-14 -1.71028e-13 0)
(1.31006e-14 -1.718e-13 0)
(2.06501e-14 -1.71578e-13 0)
(1.9984e-14 -1.71622e-13 0)
(2.02061e-14 -1.71534e-13 0)
(2.0095e-14 -1.71364e-13 0)
(2.0095e-14 -1.71372e-13 0)
(1.9873e-14 -1.71391e-13 0)
(2.0095e-14 -1.71334e-13 0)
(1.9873e-14 -1.71338e-13 0)
(1.9873e-14 -1.71392e-13 0)
(1.95399e-14 -1.71521e-13 0)
(2.02061e-14 -1.71686e-13 0)
(1.9984e-14 -1.7178e-13 0)
(1.9762e-14 -1.71669e-13 0)
(1.9762e-14 -1.71558e-13 0)
(1.95399e-14 -1.71612e-13 0)
(1.9762e-14 -1.71619e-13 0)
(1.9873e-14 -1.71585e-13 0)
(1.9873e-14 -1.71593e-13 0)
(1.77636e-15 -2.81144e-13 0)
(2.38698e-14 -1.47615e-13 0)
(1.90958e-14 -1.7712e-13 0)
(1.93179e-14 -1.70301e-13 0)
(1.93179e-14 -1.71742e-13 0)
(1.90958e-14 -1.71295e-13 0)
(1.93179e-14 -1.71408e-13 0)
(1.90958e-14 -1.71438e-13 0)
(1.93179e-14 -1.7156e-13 0)
(1.90958e-14 -1.71578e-13 0)
(1.95399e-14 -1.71543e-13 0)
(1.93179e-14 -1.71549e-13 0)
(1.95399e-14 -1.71657e-13 0)
(1.95399e-14 -1.71654e-13 0)
(1.93179e-14 -1.71676e-13 0)
(1.9873e-14 -1.71677e-13 0)
(1.9762e-14 -1.71629e-13 0)
(1.95399e-14 -1.7158e-13 0)
(1.9762e-14 -1.71559e-13 0)
(1.9762e-14 -1.71586e-13 0)
(2.17604e-14 -2.95342e-14 0)
(2.02061e-14 -2.02242e-13 0)
(2.05391e-14 -1.6443e-13 0)
(1.9984e-14 -1.73077e-13 0)
(2.0095e-14 -1.71057e-13 0)
(2.02061e-14 -1.71454e-13 0)
(2.04281e-14 -1.71406e-13 0)
(2.04281e-14 -1.71428e-13 0)
(2.05391e-14 -1.71516e-13 0)
(2.03171e-14 -1.71402e-13 0)
(2.0095e-14 -1.71415e-13 0)
(2.02061e-14 -1.71563e-13 0)
(2.03171e-14 -1.71773e-13 0)
(1.9984e-14 -1.71748e-13 0)
(1.9873e-14 -1.71761e-13 0)
(1.9984e-14 -1.71674e-13 0)
(1.9762e-14 -1.71528e-13 0)
(1.9762e-14 -1.71526e-13 0)
(1.9762e-14 -1.71557e-13 0)
(1.9873e-14 -1.71557e-13 0)
(2.37588e-14 -2.34126e-13 0)
(1.64313e-14 -1.58486e-13 0)
(1.84297e-14 -1.74734e-13 0)
(1.88738e-14 -1.70884e-13 0)
(1.88738e-14 -1.7169e-13 0)
(1.90958e-14 -1.71506e-13 0)
(1.88738e-14 -1.71492e-13 0)
(1.90958e-14 -1.71439e-13 0)
(1.88738e-14 -1.7143e-13 0)
(1.90958e-14 -1.71496e-13 0)
(1.95399e-14 -1.71528e-13 0)
(1.9984e-14 -1.71454e-13 0)
(1.9762e-14 -1.71521e-13 0)
(1.95399e-14 -1.71623e-13 0)
(1.95399e-14 -1.71694e-13 0)
(1.93179e-14 -1.71672e-13 0)
(1.95399e-14 -1.71625e-13 0)
(1.95399e-14 -1.71661e-13 0)
(1.9762e-14 -1.71613e-13 0)
(1.9762e-14 -1.7155e-13 0)
(1.08802e-14 -2.34368e-13 0)
(2.35367e-14 -1.58014e-13 0)
(1.9873e-14 -1.74628e-13 0)
(1.95399e-14 -1.70788e-13 0)
(1.9873e-14 -1.71706e-13 0)
(1.95399e-14 -1.71552e-13 0)
(1.9873e-14 -1.71476e-13 0)
(1.95399e-14 -1.7146e-13 0)
(1.9873e-14 -1.71573e-13 0)
(1.9873e-14 -1.7178e-13 0)
(1.95399e-14 -1.71813e-13 0)
(1.95399e-14 -1.71631e-13 0)
(1.9873e-14 -1.71556e-13 0)
(1.9873e-14 -1.71641e-13 0)
(1.9984e-14 -1.71681e-13 0)
(1.95399e-14 -1.71727e-13 0)
(1.9873e-14 -1.71733e-13 0)
(1.9873e-14 -1.7168e-13 0)
(1.9762e-14 -1.71614e-13 0)
(1.9873e-14 -1.7162e-13 0)
(2.52021e-14 -2.43464e-14 0)
(1.73195e-14 -2.03488e-13 0)
(1.95399e-14 -1.64151e-13 0)
(1.95399e-14 -1.73192e-13 0)
(1.95399e-14 -1.71203e-13 0)
(1.95399e-14 -1.71704e-13 0)
(1.95399e-14 -1.71599e-13 0)
(1.9762e-14 -1.71617e-13 0)
(1.9873e-14 -1.71596e-13 0)
(2.02061e-14 -1.7154e-13 0)
(1.9984e-14 -1.71647e-13 0)
(1.9762e-14 -1.71701e-13 0)
(1.9984e-14 -1.7168e-13 0)
(1.9762e-14 -1.71699e-13 0)
(1.9873e-14 -1.71628e-13 0)
(1.9762e-14 -1.71657e-13 0)
(1.9873e-14 -1.71697e-13 0)
(1.9873e-14 -1.7155e-13 0)
(1.9762e-14 -1.71556e-13 0)
(1.9873e-14 -1.71604e-13 0)
(1.08802e-14 -3.34234e-13 0)
(2.09832e-14 -1.36544e-13 0)
(1.88738e-14 -1.79648e-13 0)
(2.02061e-14 -1.69593e-13 0)
(1.9984e-14 -1.71859e-13 0)
(2.0095e-14 -1.71526e-13 0)
(2.0095e-14 -1.71746e-13 0)
(2.0095e-14 -1.71848e-13 0)
(1.9984e-14 -1.71767e-13 0)
(1.9762e-14 -1.71662e-13 0)
(2.0095e-14 -1.71626e-13 0)
(1.9984e-14 -1.71606e-13 0)
(2.02061e-14 -1.7157e-13 0)
(1.9873e-14 -1.71646e-13 0)
(1.9762e-14 -1.71659e-13 0)
(1.9762e-14 -1.71732e-13 0)
(1.95399e-14 -1.71715e-13 0)
(1.95399e-14 -1.71623e-13 0)
(1.9762e-14 -1.71576e-13 0)
(1.9873e-14 -1.71582e-13 0)
(3.04201e-14 -6.34492e-14 0)
(1.84297e-14 -1.95031e-13 0)
(2.13163e-14 -1.66075e-13 0)
(1.88738e-14 -1.72826e-13 0)
(1.9873e-14 -1.71378e-13 0)
(1.9984e-14 -1.71759e-13 0)
(2.03171e-14 -1.71671e-13 0)
(2.0095e-14 -1.71692e-13 0)
(2.02061e-14 -1.71623e-13 0)
(1.9984e-14 -1.71763e-13 0)
(1.9984e-14 -1.71756e-13 0)
(1.9984e-14 -1.71575e-13 0)
(2.02061e-14 -1.71428e-13 0)
(2.02061e-14 -1.71461e-13 0)
(1.9873e-14 -1.71522e-13 0)
(1.9984e-14 -1.71553e-13 0)
(1.9762e-14 -1.71605e-13 0)
(1.9873e-14 -1.71633e-13 0)
(1.9873e-14 -1.71541e-13 0)
(1.9873e-14 -1.71602e-13 0)
(1.73195e-14 -1.69373e-13 0)
(1.86517e-14 -1.71629e-13 0)
(1.84297e-14 -1.71672e-13 0)
(2.02061e-14 -1.71736e-13 0)
(1.93179e-14 -1.71862e-13 0)
(1.95399e-14 -1.71838e-13 0)
(1.93179e-14 -1.71667e-13 0)
(1.90958e-14 -1.7156e-13 0)
(1.90958e-14 -1.71587e-13 0)
(1.93179e-14 -1.71649e-13 0)
(1.93179e-14 -1.71655e-13 0)
(1.88738e-14 -1.71677e-13 0)
(1.93179e-14 -1.71635e-13 0)
(1.95399e-14 -1.7156e-13 0)
(1.93179e-14 -1.71608e-13 0)
(1.93179e-14 -1.71574e-13 0)
(1.95399e-14 -1.71641e-13 0)
(1.93179e-14 -1.71668e-13 0)
(1.95399e-14 -1.71618e-13 0)
(1.9984e-14 -1.71634e-13 0)
(1.86517e-14 -2.96063e-13 0)
(2.20934e-14 -1.43973e-13 0)
(2.08722e-14 -1.77644e-13 0)
(1.93179e-14 -1.69935e-13 0)
(1.9984e-14 -1.7184e-13 0)
(1.9762e-14 -1.71482e-13 0)
(1.95399e-14 -1.71655e-13 0)
(1.95399e-14 -1.71688e-13 0)
(1.9984e-14 -1.71741e-13 0)
(1.9984e-14 -1.71655e-13 0)
(2.0095e-14 -1.7159e-13 0)
(1.9984e-14 -1.71743e-13 0)
(2.0095e-14 -1.7172e-13 0)
(1.9984e-14 -1.71556e-13 0)
(1.9873e-14 -1.71579e-13 0)
(1.9762e-14 -1.71668e-13 0)
(1.9984e-14 -1.71699e-13 0)
(1.9762e-14 -1.71755e-13 0)
(1.9762e-14 -1.71733e-13 0)
(1.9873e-14 -1.71608e-13 0)
(1.33227e-15 1.5723e-14 0)
(2.24265e-14 -2.1226e-13 0)
(1.77636e-14 -1.6203e-13 0)
(1.9984e-14 -1.73735e-13 0)
(1.93179e-14 -1.7115e-13 0)
(1.95399e-14 -1.71723e-13 0)
(1.9873e-14 -1.71749e-13 0)
(1.95399e-14 -1.71768e-13 0)
(1.95399e-14 -1.71733e-13 0)
(1.93179e-14 -1.71721e-13 0)
(1.9984e-14 -1.717e-13 0)
(1.9762e-14 -1.7168e-13 0)
(1.95399e-14 -1.71598e-13 0)
(1.9762e-14 -1.71478e-13 0)
(1.9984e-14 -1.71472e-13 0)
(1.9762e-14 -1.71629e-13 0)
(1.9762e-14 -1.71667e-13 0)
(1.9873e-14 -1.71639e-13 0)
(1.9762e-14 -1.71587e-13 0)
(1.9762e-14 -1.71565e-13 0)
(4.57412e-14 -2.84662e-13 0)
(1.26565e-14 -1.47241e-13 0)
(2.0095e-14 -1.77486e-13 0)
(1.93179e-14 -1.70382e-13 0)
(1.93179e-14 -1.7187e-13 0)
(1.93179e-14 -1.71617e-13 0)
(1.93179e-14 -1.71728e-13 0)
(1.95399e-14 -1.71719e-13 0)
(1.95399e-14 -1.71719e-13 0)
(1.95399e-14 -1.71755e-13 0)
(1.90958e-14 -1.71777e-13 0)
(1.93179e-14 -1.71696e-13 0)
(1.95399e-14 -1.71717e-13 0)
(1.95399e-14 -1.7172e-13 0)
(1.95399e-14 -1.71628e-13 0)
(1.9762e-14 -1.71644e-13 0)
(1.9762e-14 -1.71611e-13 0)
(1.95399e-14 -1.71541e-13 0)
(1.95399e-14 -1.71567e-13 0)
(1.9762e-14 -1.71643e-13 0)
(-8.65974e-15 -2.07193e-13 0)
(2.80886e-14 -1.64147e-13 0)
(1.93179e-14 -1.73442e-13 0)
(2.03171e-14 -1.71216e-13 0)
(1.9984e-14 -1.71646e-13 0)
(2.0095e-14 -1.71623e-13 0)
(1.9984e-14 -1.71734e-13 0)
(2.0095e-14 -1.71787e-13 0)
(2.0095e-14 -1.71728e-13 0)
(1.9873e-14 -1.71717e-13 0)
(1.9873e-14 -1.71727e-13 0)
(1.9762e-14 -1.71692e-13 0)
(2.0095e-14 -1.71707e-13 0)
(1.9762e-14 -1.71718e-13 0)
(1.95399e-14 -1.71706e-13 0)
(1.9762e-14 -1.71634e-13 0)
(1.95399e-14 -1.7156e-13 0)
(1.95399e-14 -1.71643e-13 0)
(1.9873e-14 -1.71718e-13 0)
(1.9873e-14 -1.71628e-13 0)
(1.75415e-14 -3.07136e-14 0)
(2.02061e-14 -2.02213e-13 0)
(1.95399e-14 -1.64456e-13 0)
(2.0095e-14 -1.73281e-13 0)
(1.9762e-14 -1.71336e-13 0)
(2.0095e-14 -1.71758e-13 0)
(1.9984e-14 -1.71678e-13 0)
(1.9984e-14 -1.71681e-13 0)
(1.9762e-14 -1.71656e-13 0)
(2.02061e-14 -1.71643e-13 0)
(1.9984e-14 -1.71668e-13 0)
(1.9984e-14 -1.71663e-13 0)
(1.9984e-14 -1.71631e-13 0)
(2.02061e-14 -1.71629e-13 0)
(2.02061e-14 -1.71671e-13 0)
(2.0095e-14 -1.71574e-13 0)
(1.9984e-14 -1.71516e-13 0)
(2.02061e-14 -1.7157e-13 0)
(1.9873e-14 -1.71677e-13 0)
(1.95399e-14 -1.71596e-13 0)
(5.40679e-14 -2.31095e-13 0)
(1.08802e-14 -1.58958e-13 0)
(2.06501e-14 -1.74702e-13 0)
(1.90958e-14 -1.71096e-13 0)
(1.93179e-14 -1.71921e-13 0)
(1.95399e-14 -1.71661e-13 0)
(1.95399e-14 -1.71643e-13 0)
(1.90958e-14 -1.71685e-13 0)
(1.93179e-14 -1.71709e-13 0)
(1.95399e-14 -1.7167e-13 0)
(1.93179e-14 -1.71661e-13 0)
(1.93179e-14 -1.71665e-13 0)
(1.95399e-14 -1.71671e-13 0)
(1.95399e-14 -1.71711e-13 0)
(1.93179e-14 -1.71712e-13 0)
(1.95399e-14 -1.7152e-13 0)
(1.93179e-14 -1.71487e-13 0)
(1.95399e-14 -1.71572e-13 0)
(1.9762e-14 -1.71627e-13 0)
(1.9762e-14 -1.71665e-13 0)
(4.66294e-15 -2.59244e-13 0)
(2.4869e-14 -1.52954e-13 0)
(2.03171e-14 -1.76157e-13 0)
(2.06501e-14 -1.70772e-13 0)
(2.04281e-14 -1.71936e-13 0)
(2.0095e-14 -1.71603e-13 0)
(2.0095e-14 -1.71619e-13 0)
(2.03171e-14 -1.71662e-13 0)
(2.02061e-14 -1.71669e-13 0)
(1.9984e-14 -1.71649e-13 0)
(2.02061e-14 -1.71628e-13 0)
(1.9984e-14 -1.71647e-13 0)
(1.9984e-14 -1.71661e-13 0)
(2.0095e-14 -1.71669e-13 0)
(1.9873e-14 -1.71699e-13 0)
(1.9873e-14 -1.71584e-13 0)
(1.9873e-14 -1.71586e-13 0)
(1.9984e-14 -1.71683e-13 0)
(1.9762e-14 -1.71632e-13 0)
(1.9873e-14 -1.71643e-13 0)
)
;

boundaryField
{
    movingWall
    {
        type            calculated;
        value           uniform (1.9762e-14 -1.71593e-13 0);
    }
    fixedWalls
    {
        type            calculated;
        value           uniform (1.9762e-14 -1.71593e-13 0);
    }
    frontAndBack
    {
        type            empty;
    }
}


// ************************************************************************* //
