/*--------------------------------*- C++ -*----------------------------------*\
| =========                 |                                                 |
| \\      /  F ield         | OpenFOAM: The Open Source CFD Toolbox           |
|  \\    /   O peration     | Version:  2506                                  |
|   \\  /    A nd           | Website:  www.openfoam.com                      |
|    \\/     M anipulation  |                                                 |
\*---------------------------------------------------------------------------*/
FoamFile
{
    version     2.0;
    format      ascii;
    arch        "LSB;label=32;scalar=64";
    class       volScalarField;
    location    "9.375";
    object      divU;
}
// * * * * * * * * * * * * * * * * * * * * * * * * * * * * * * * * * * * * * //

dimensions      [0 0 -1 0 0 0 0];

internalField   nonuniform List<scalar> 
400
(
1.71033e-11
-1.95615e-12
4.08776e-13
-1.76231e-13
4.38136e-14
5.64697e-17
-2.93728e-14
-6.7424e-15
2.19627e-14
-3.47319e-14
1.56578e-14
1.62512e-14
-4.12083e-15
1.10073e-14
7.78433e-15
-7.04094e-15
-4.46546e-14
4.22854e-14
-5.41107e-15
0
-3.05203e-11
3.59099e-12
-7.78183e-13
3.15556e-13
-2.39512e-14
9.85132e-15
1.01379e-14
-1.23032e-14
-1.44209e-14
5.44629e-14
-4.25466e-14
-6.47967e-14
-9.34762e-16
-5.03308e-15
1.52863e-14
1.6425e-14
-2.60248e-14
-1.54934e-15
2.3753e-14
0
9.21572e-12
-1.06655e-12
1.81621e-13
-1.01339e-13
5.09694e-15
8.64835e-15
-4.35343e-16
-3.1878e-14
2.81127e-14
-2.87028e-14
3.30156e-14
2.74437e-14
3.69848e-14
-9.8069e-15
-6.70355e-14
-2.3487e-14
-7.72419e-15
4.45243e-15
-1.67237e-15
-2.71051e-14
1.45283e-11
-1.4352e-12
2.6809e-13
-1.31022e-13
3.95669e-14
2.40937e-14
-2.68646e-15
-1.25094e-14
2.71999e-14
-2.15172e-14
2.64629e-14
-7.81027e-14
-1.36163e-14
3.34686e-14
4.74459e-14
2.56717e-15
-5.16789e-15
4.61841e-14
2.01501e-14
-2.71051e-14
-2.02475e-11
2.2145e-12
-4.69717e-13
2.07713e-13
-8.87123e-15
-1.44301e-15
1.36017e-14
8.65826e-15
2.20829e-15
-2.71037e-14
-2.90105e-14
3.87806e-14
3.86657e-14
-2.46821e-14
-4.28553e-14
-4.83927e-15
-5.45139e-15
-1.16674e-15
3.13175e-14
-2.71051e-14
1.27665e-11
-1.31758e-12
2.72163e-13
-1.54679e-13
-1.54346e-14
4.37711e-14
-1.69095e-14
-4.91715e-14
3.82047e-14
-6.42596e-15
2.28932e-14
-1.96815e-14
2.99655e-14
-2.15149e-14
2.92469e-14
6.48634e-14
-2.41733e-14
8.06247e-15
7.09533e-15
0
4.93312e-12
-1.1849e-12
2.12619e-13
-1.04581e-13
4.40018e-14
-4.36412e-15
2.88423e-14
3.20691e-14
-2.94386e-15
-5.24936e-14
-2.69432e-15
1.69793e-14
-1.06413e-14
8.69235e-15
3.58291e-16
-1.58946e-14
-2.37293e-14
-4.49936e-17
2.88357e-14
-2.71051e-14
-2.04101e-11
3.88849e-12
-7.5304e-13
2.59842e-13
-7.50371e-14
3.99925e-14
-5.94647e-14
5.59448e-14
-8.70262e-15
1.81649e-14
3.87591e-14
1.01884e-14
-7.03525e-14
1.94093e-14
-1.87354e-14
5.99e-15
1.00112e-14
3.88409e-14
-4.02321e-15
0
2.04372e-11
-3.5391e-12
6.57545e-13
-2.41919e-13
5.49281e-14
-6.99149e-15
-1.59597e-14
-1.61263e-14
1.7422e-15
-4.04011e-14
-5.44231e-14
3.96502e-14
2.21956e-14
1.17267e-14
-3.9328e-14
7.42643e-15
2.99294e-14
-4.31389e-15
1.6871e-15
0
-9.70361e-12
1.58941e-12
-2.78077e-13
1.21588e-13
-1.45941e-14
-4.31802e-15
-1.58586e-14
5.34702e-14
9.51313e-15
-1.50111e-15
-8.56133e-15
1.50882e-14
-6.29137e-15
-1.58631e-14
-1.00669e-14
3.39788e-14
4.58266e-15
-2.57735e-14
3.25605e-14
-2.71051e-14
-4.66207e-12
1.64907e-12
-3.07839e-13
1.58145e-13
-4.98437e-15
-9.79001e-15
4.11843e-15
-8.24529e-15
-2.02743e-14
3.30244e-15
-1.94799e-14
6.42576e-16
1.88875e-14
-1.9087e-14
5.53572e-16
1.72736e-14
-4.04566e-14
4.72842e-14
6.90477e-15
0
1.74014e-11
-4.40733e-12
8.15056e-13
-3.54383e-13
1.30166e-13
-1.39461e-14
1.20416e-14
2.05923e-14
-2.28871e-15
4.62145e-15
4.69658e-15
-6.5132e-15
1.24494e-14
-1.04586e-14
5.6309e-15
-2.11523e-14
-3.30269e-14
1.57151e-14
2.7527e-15
-2.71051e-14
-2.36085e-11
5.19792e-12
-9.65218e-13
3.68439e-13
-1.0575e-13
1.37868e-14
1.36165e-14
-6.02729e-14
4.00861e-14
1.54621e-14
-3.29311e-14
-2.33902e-14
6.45573e-14
-4.71106e-14
-5.39552e-18
2.16078e-14
-1.52756e-14
-2.36366e-14
3.77892e-14
0
1.86483e-11
-3.87954e-12
7.03632e-13
-2.65086e-13
1.01047e-13
-2.89044e-14
-7.58744e-14
2.72791e-14
5.26188e-14
-1.88241e-14
-1.03308e-14
3.46951e-15
1.40432e-14
1.53198e-14
-4.05624e-14
1.61334e-14
9.27036e-15
-2.0714e-14
4.0913e-14
-2.71051e-14
-4.60786e-13
1.32314e-12
-2.29252e-13
1.50998e-13
-9.16471e-14
6.59532e-14
-1.91848e-15
-5.71215e-14
6.00861e-16
-1.71409e-15
5.22993e-14
-1.89264e-14
-1.27753e-14
-1.0516e-15
-1.84211e-14
-3.56598e-14
1.79915e-14
2.78289e-14
3.32233e-15
0
-2.0383e-11
2.23124e-12
-4.75997e-13
1.58963e-13
-6.00108e-14
2.17841e-14
-4.51879e-16
2.23145e-14
1.05985e-15
-2.84319e-14
-4.55899e-15
6.94604e-15
3.44728e-15
-2.5058e-14
3.94839e-14
-9.09446e-15
-5.26966e-14
2.99327e-16
4.4423e-14
0
2.33646e-11
-2.6968e-12
5.28874e-13
-2.12291e-13
2.04816e-14
-1.94096e-14
4.61458e-15
-1.01251e-15
7.37933e-15
-1.73047e-14
-2.0763e-14
3.73794e-14
1.20869e-14
-1.60188e-14
8.11931e-15
-5.63084e-14
1.10746e-14
5.16001e-14
6.27769e-15
-2.71051e-14
-2.57498e-12
7.22349e-13
-1.66279e-13
7.07722e-14
-3.41164e-14
3.82319e-15
1.37375e-14
-1.79284e-14
3.63817e-14
1.4466e-14
1.28695e-14
1.30005e-14
1.56077e-14
3.88215e-14
7.47629e-15
-1.77773e-14
1.84483e-14
4.52498e-15
-3.88316e-14
0
-2.03288e-11
1.60963e-12
-3.60596e-13
1.31886e-13
-3.99116e-14
1.93904e-14
-3.46438e-14
1.11056e-14
3.51164e-14
-1.31934e-14
-1.02321e-14
1.46312e-14
1.25433e-14
7.77976e-15
4.68161e-15
-1.88547e-14
-1.5674e-14
7.45677e-14
-7.15543e-15
0
1.37423e-11
-1.5992e-12
3.52366e-13
-1.0842e-13
-2.71051e-14
-2.71051e-14
2.71051e-14
2.71051e-14
0
0
0
0
2.71051e-14
2.71051e-14
0
0
2.71051e-14
-2.71051e-14
0
-2.71051e-14
)
;

boundaryField
{
    movingWall
    {
        type            extrapolatedCalculated;
        value           nonuniform List<scalar> 
20
(
1.37423e-11
-1.5992e-12
3.52366e-13
-1.0842e-13
-2.71051e-14
-2.71051e-14
2.71051e-14
2.71051e-14
0
0
0
0
2.71051e-14
2.71051e-14
0
0
2.71051e-14
-2.71051e-14
0
-2.71051e-14
)
;
    }
    fixedWalls
    {
        type            extrapolatedCalculated;
        value           nonuniform List<scalar> 
60
(
1.71033e-11
-3.05203e-11
9.21572e-12
1.45283e-11
-2.02475e-11
1.27665e-11
4.93312e-12
-2.04101e-11
2.04372e-11
-9.70361e-12
-4.66207e-12
1.74014e-11
-2.36085e-11
1.86483e-11
-4.60786e-13
-2.0383e-11
2.33646e-11
-2.57498e-12
-2.03288e-11
1.37423e-11
0
0
-2.71051e-14
-2.71051e-14
-2.71051e-14
0
-2.71051e-14
0
0
-2.71051e-14
0
-2.71051e-14
0
-2.71051e-14
0
0
-2.71051e-14
0
0
-2.71051e-14
1.71033e-11
-1.95615e-12
4.08776e-13
-1.76231e-13
4.38136e-14
5.64697e-17
-2.93728e-14
-6.7424e-15
2.19627e-14
-3.47319e-14
1.56578e-14
1.62512e-14
-4.12083e-15
1.10073e-14
7.78433e-15
-7.04094e-15
-4.46546e-14
4.22854e-14
-5.41107e-15
0
)
;
    }
    frontAndBack
    {
        type            empty;
    }
}


// ************************************************************************* //
