/*--------------------------------*- C++ -*----------------------------------*\
| =========                 |                                                 |
| \\      /  F ield         | OpenFOAM: The Open Source CFD Toolbox           |
|  \\    /   O peration     | Version:  2506                                  |
|   \\  /    A nd           | Website:  www.openfoam.com                      |
|    \\/     M anipulation  |                                                 |
\*---------------------------------------------------------------------------*/
FoamFile
{
    version     2.0;
    format      ascii;
    arch        "LSB;label=32;scalar=64";
    class       volScalarField;
    location    "9.375";
    object      enstrophyField;
}
// * * * * * * * * * * * * * * * * * * * * * * * * * * * * * * * * * * * * * //

dimensions      [0 0 -2 0 0 0 0];

internalField   nonuniform List<scalar> 
400
(
6.8635e-23
1.2632e-22
5.98685e-24
4.05167e-25
9.43761e-27
3.32206e-27
1.03584e-27
1.63087e-27
2.65145e-28
1.7796e-27
5.59871e-28
1.92478e-28
8.76613e-30
1.29348e-29
1.46436e-27
1.91684e-30
1.03825e-27
1.46762e-27
6.32154e-31
3.0811e-30
4.99299e-26
3.66594e-25
7.20474e-26
1.12015e-27
7.22587e-27
1.03465e-26
1.08247e-26
5.8804e-27
5.35185e-27
1.42333e-27
3.56554e-27
3.29321e-27
4.44731e-29
6.92617e-28
4.18541e-29
6.95336e-30
3.00758e-27
1.11517e-28
6.2175e-29
4.79351e-29
2.28089e-23
9.28997e-23
5.36465e-24
2.31061e-25
4.21644e-26
1.54296e-27
5.70082e-28
3.17349e-30
4.13166e-27
1.46045e-27
8.62655e-29
1.07533e-28
2.39396e-27
3.46759e-28
4.61869e-27
1.60836e-28
2.36142e-28
2.50726e-27
1.24451e-28
3.49711e-32
1.16254e-23
4.84715e-23
2.55857e-24
1.71269e-25
2.82161e-27
3.65568e-27
6.63324e-27
1.5283e-27
1.02851e-28
1.20749e-27
2.13915e-27
1.34629e-28
1.94996e-30
1.76301e-27
3.98214e-28
4.85899e-28
1.02992e-29
9.90185e-30
4.47041e-28
6.10276e-29
3.44115e-26
9.0902e-27
1.01055e-27
1.71637e-27
5.73508e-27
7.75863e-27
1.32468e-27
1.68593e-27
5.26167e-28
1.17154e-27
1.67113e-28
4.31686e-28
5.75064e-27
1.37961e-27
2.91869e-27
5.36937e-28
1.83291e-29
1.61728e-27
1.6129e-27
1.42279e-27
1.7894e-23
4.67605e-23
2.51211e-24
1.75227e-25
4.94165e-27
2.15908e-28
8.5577e-28
2.41243e-27
2.32573e-27
1.37913e-27
4.06422e-30
4.29443e-27
5.43805e-29
1.78164e-30
2.76088e-30
2.52476e-28
4.73086e-29
2.45053e-29
1.77386e-31
8.69416e-30
4.00114e-23
8.13797e-23
4.41253e-24
2.02021e-25
2.34469e-26
6.09174e-28
3.52409e-27
5.9949e-29
1.60955e-27
5.10302e-29
1.2971e-28
4.04883e-27
1.04035e-27
6.8337e-31
1.09499e-27
1.26837e-27
1.09328e-28
4.0248e-30
4.74974e-30
5.92202e-28
7.44328e-24
1.57585e-23
6.71109e-25
4.63285e-26
6.1311e-28
5.10661e-27
5.71049e-28
3.83547e-27
2.85319e-27
9.83778e-28
1.70963e-27
1.50893e-27
5.22512e-29
1.49206e-28
1.198e-29
3.88755e-27
5.64529e-31
1.40545e-27
6.20891e-29
3.04258e-28
1.27766e-23
1.73618e-23
9.98297e-25
3.51621e-26
1.24389e-26
8.7067e-30
2.5958e-27
6.77921e-28
9.85967e-27
8.76762e-27
7.74047e-28
3.29956e-28
3.94998e-28
7.71719e-29
6.34728e-28
5.22449e-28
2.51369e-28
1.15923e-28
1.78315e-29
2.50679e-28
6.65307e-23
9.39746e-23
4.83914e-24
3.09282e-25
1.10571e-26
4.40109e-27
3.79135e-29
5.84353e-27
1.87686e-28
1.28003e-29
2.47374e-27
4.61631e-28
1.68133e-32
1.30562e-29
4.90758e-28
1.86343e-27
7.13912e-28
8.48483e-28
1.41345e-29
3.75991e-30
8.84613e-23
1.17399e-22
5.91819e-24
3.70004e-25
3.06305e-26
9.23204e-28
6.4468e-27
2.09489e-30
1.73228e-28
8.48529e-28
1.57494e-29
2.32307e-28
4.84681e-28
1.99053e-27
6.37151e-28
5.35387e-28
5.92021e-29
9.64468e-29
2.646e-28
4.00055e-30
3.07896e-23
4.99158e-23
2.52594e-24
1.40597e-25
2.31339e-26
3.1169e-28
1.85347e-27
6.40479e-27
5.13638e-27
9.53467e-29
2.66763e-27
1.41696e-26
4.29851e-27
1.55878e-28
2.59617e-27
1.7705e-28
3.18062e-29
1.83484e-27
4.56378e-28
9.49503e-30
9.57668e-25
1.85613e-25
2.49124e-27
2.68634e-27
5.18934e-29
2.71944e-27
5.96002e-27
6.16726e-28
3.96511e-29
2.32827e-29
4.09671e-30
2.08201e-30
6.90865e-29
4.42086e-28
1.03173e-30
1.29769e-27
4.38703e-29
2.66074e-30
5.77612e-30
2.10559e-29
3.26891e-23
6.56933e-23
3.29997e-24
1.68432e-25
2.18279e-26
6.37136e-28
2.7989e-27
6.39247e-28
1.29465e-27
1.14335e-28
1.99048e-27
7.36808e-27
3.50288e-29
8.42736e-29
4.27586e-27
2.19222e-27
6.43594e-28
1.66247e-27
1.08956e-28
1.18694e-28
7.14555e-23
1.42025e-22
7.84428e-24
4.15813e-25
3.99004e-26
2.29114e-28
1.23439e-27
1.31047e-30
1.74003e-27
3.5751e-27
6.3274e-27
4.1913e-27
5.15473e-27
7.8773e-28
7.16871e-29
1.89685e-28
3.41522e-28
3.19181e-29
1.89877e-27
2.76897e-28
3.1172e-23
5.17707e-23
3.13458e-24
1.57725e-25
2.0993e-26
2.25811e-27
2.0699e-27
1.42096e-27
3.60399e-27
3.79065e-27
1.69329e-29
1.79951e-29
1.59927e-27
3.93589e-29
1.91197e-27
1.41108e-30
2.07746e-27
1.72027e-27
2.07438e-27
3.07328e-28
4.70831e-28
3.35153e-24
2.12974e-25
4.82968e-27
2.29839e-27
1.98283e-27
2.49597e-27
1.43642e-27
2.01136e-28
1.46197e-27
3.10959e-27
3.14489e-27
1.61105e-27
1.46616e-27
2.66301e-27
7.86911e-29
1.51607e-27
4.71051e-27
3.26953e-28
9.22237e-28
1.13515e-23
6.7739e-23
3.87752e-24
1.52609e-25
2.7279e-26
2.52301e-29
1.91863e-27
6.11327e-27
6.29271e-27
3.36213e-28
3.15648e-28
4.75639e-28
1.65747e-27
2.66303e-28
5.34317e-28
9.07617e-28
1.48803e-27
1.30496e-28
3.01425e-28
3.70973e-29
5.73109e-24
1.35493e-23
8.38594e-25
1.93526e-26
9.50753e-27
1.51016e-27
4.34747e-28
1.8498e-27
1.38787e-27
5.07904e-28
1.32054e-31
4.99552e-31
1.08082e-29
8.42391e-30
2.6895e-27
2.54851e-28
1.32405e-29
8.56143e-29
4.3555e-29
1.38309e-28
1.25185e-23
3.12219e-23
1.35524e-24
1.00894e-25
1.56326e-27
5.00087e-28
2.24772e-28
1.22053e-29
8.20678e-31
8.38408e-30
2.11437e-32
5.54486e-30
2.42456e-30
2.72565e-28
1.04726e-27
6.35954e-29
2.05197e-27
1.0428e-29
7.87331e-30
6.44398e-28
)
;

boundaryField
{
    movingWall
    {
        type            calculated;
        value           nonuniform List<scalar> 
20
(
8.37305e-23
5.3577e-23
1.21654e-24
3.02156e-25
1.68239e-26
1.35881e-26
8.10572e-27
2.35671e-26
1.60056e-26
4.31639e-27
1.58138e-26
3.65408e-27
3.75115e-27
8.3812e-27
1.39672e-27
1.55051e-27
5.97095e-28
3.54912e-27
7.87331e-30
1.41532e-27
)
;
    }
    fixedWalls
    {
        type            calculated;
        value           nonuniform List<scalar> 
60
(
2.2398e-21
9.64618e-24
1.70449e-21
8.6479e-22
2.60348e-27
8.50591e-22
1.49212e-21
2.86296e-22
3.18666e-22
1.73454e-21
2.15158e-21
9.08842e-22
2.10855e-24
1.16106e-21
2.60758e-21
9.7911e-22
6.49099e-23
1.25454e-21
2.53116e-22
5.49886e-22
1.914e-29
9.86197e-31
7.25968e-30
1.84939e-29
1.45627e-27
4.65793e-30
8.64936e-28
4.53732e-29
1.363e-28
8.16538e-30
1.0138e-29
5.7002e-30
1.30584e-28
1.64899e-29
1.20353e-28
2.63764e-29
8.29673e-28
3.90899e-31
1.05423e-30
1.10442e-27
2.27455e-22
1.78496e-22
5.65819e-24
7.75829e-25
1.33946e-26
7.31809e-26
4.56528e-26
2.53004e-26
2.37549e-26
1.676e-26
1.28861e-27
1.44757e-26
3.58118e-27
1.29348e-29
9.90183e-28
1.91684e-30
3.21413e-27
5.20711e-34
6.32154e-31
3.0811e-30
)
;
    }
    frontAndBack
    {
        type            empty;
    }
}


// ************************************************************************* //
