/*--------------------------------*- C++ -*----------------------------------*\
| =========                 |                                                 |
| \\      /  F ield         | OpenFOAM: The Open Source CFD Toolbox           |
|  \\    /   O peration     | Version:  2506                                  |
|   \\  /    A nd           | Website:  www.openfoam.com                      |
|    \\/     M anipulation  |                                                 |
\*---------------------------------------------------------------------------*/
FoamFile
{
    version     2.0;
    format      ascii;
    arch        "LSB;label=32;scalar=64";
    class       volScalarField;
    location    "9.375";
    object      flowTypeField;
}
// * * * * * * * * * * * * * * * * * * * * * * * * * * * * * * * * * * * * * //

dimensions      [0 0 0 0 0 0 0];

internalField   nonuniform List<scalar> 
400
(
0.440964
0.0570104
0.0647789
-0.0326369
0.295973
-0.497135
0.392347
0.101833
0.306539
0.226149
-0.0478051
0.350184
0.825311
0.493523
0.0116228
0.8957
0.370547
0.273083
0.643437
0.155389
0.986654
0.861814
0.756238
0.847086
0.129516
-0.0581883
-0.0563559
0.00105676
0.0487635
0.415984
0.0162499
0.157969
0.0479427
0.0903661
0.197791
0.798346
-0.207574
0.509716
0.757375
0.0756137
0.550936
0.116223
0.0256543
0.146298
-0.514704
0.314167
-0.139446
0.796638
-0.0451526
0.102706
0.504559
0.684409
0.124882
0.0415829
0.0271241
0.168475
0.0687715
-0.291209
0.408099
0.965779
0.690034
0.143176
0.121595
0.0137066
0.430804
-0.45413
-0.00428598
0.123138
0.571096
0.372654
-0.113678
0.753621
0.85375
0.389649
0.61743
-0.145303
0.107514
0.79225
0.132923
0.766847
0.98358
0.966485
0.952612
0.727595
-0.0534758
-0.0715769
0.0871131
0.00433068
-0.18745
0.191355
0.389445
0.252941
-0.226224
0.126895
-0.192238
-0.153467
0.000979611
-0.0399263
0.0756665
0.121642
0.586887
0.115122
0.0706292
-0.0593699
0.177006
0.691557
-0.489529
0.106269
0.138318
0.0372276
0.833893
-0.0728469
0.583161
0.876266
0.862046
0.678765
0.601955
0.336274
0.574972
0.195381
0.249892
0.0571731
-0.0150897
0.047409
-0.305141
0.258759
0.0252068
0.55363
0.0816044
0.758975
0.00421547
-0.58754
-0.0206316
0.47324
0.135391
-0.131028
0.459113
0.558698
0.826555
0.113921
0.769253
0.225617
0.264697
0.188349
0.565304
-0.00867457
0.400794
0.100803
0.0725509
0.433354
0.400251
0.0941403
0.842163
0.136939
0.759464
-0.081246
0.929947
0.290622
0.100726
0.108492
0.712063
0.202555
0.164163
0.264658
-0.389058
0.845031
0.119668
-0.0893454
-0.224486
-0.174203
0.448719
0.541767
0.288928
0.527438
0.376002
-0.185676
0.380427
0.566462
0.23362
0.182795
0.225173
0.0312376
-0.0102129
-0.0976963
0.00522093
-0.71375
0.617988
0.214448
0.493906
0.517522
-0.0768877
-0.112542
0.499803
0.742615
-0.147706
-0.000847235
-0.379417
0.000803633
0.73692
0.8394
0.00567946
0.0115803
-0.0385873
-0.0913374
-0.272265
0.207964
-0.384355
0.614037
0.384783
0.107764
0.461164
0.260521
0.150665
0.201263
-0.194552
-0.111073
0.744768
0.689736
0.148472
0.0013762
0.523041
0.0792767
0.0464708
0.0937897
-0.057399
0.599785
-0.108391
-0.00789703
0.101095
0.478463
-0.339983
-0.238631
-0.0715235
0.4998
0.114397
0.49273
0.652189
0.00850181
-0.0977354
0.775079
0.91926
0.844269
0.917696
0.704528
0.806878
-0.0633121
-0.339332
0.379838
0.784704
0.397982
0.915513
0.799508
0.816634
0.225299
0.608479
0.162288
0.253494
0.715577
0.904737
0.00371772
0.558035
0.081894
0.0742376
0.0565708
-0.171949
0.397867
0.0602334
0.399123
0.313671
0.0890234
-0.157092
-0.118871
0.67536
0.521607
0.0662475
-0.0693265
-0.3071
0.0494887
0.461851
0.456358
0.190903
0.0558618
-0.0260174
0.0218412
-0.258482
0.785255
0.0899478
0.941732
-0.0861149
-0.0315654
0.165871
-0.0605216
-0.246512
0.0837388
0.548748
0.369472
0.0778097
0.573231
-0.0802155
0.1347
0.615117
0.145842
0.0619757
0.091537
-0.426307
0.177324
-0.183955
0.113805
-0.0436856
-0.0135208
0.0777816
0.0181644
0.0784389
0.577784
0.212642
0.033455
0.161943
-0.0809241
0.165939
0.104437
0.99828
0.57725
0.555051
0.669554
0.115883
-0.117105
-0.291503
0.0134647
0.268549
0.115223
0.0837277
0.072609
-0.0330898
0.109633
0.102731
0.739573
-0.00020593
0.0195627
0.320242
-0.0287057
0.574186
0.13038
0.0383828
0.198957
-0.483313
0.777079
-0.12289
0.0146572
-0.00309928
0.0551104
0.0944488
-0.127987
-0.058935
0.356128
-0.200394
0.00667113
0.00283084
0.0789865
0.537232
0.0739305
0.814189
0.331007
0.281722
0.455993
-0.176315
-0.42002
0.218309
-0.119644
0.123044
-0.171099
0.939969
0.307256
0.761507
0.226143
-0.345651
0.32022
0.340089
0.799622
0.0914056
0.383182
0.637901
0.117488
0.160657
-0.0120458
0.533251
0.229421
0.410346
0.617288
0.91983
0.609776
0.886557
0.644244
0.760829
0.270903
0.269197
0.171147
-0.0257174
0.769427
0.424647
0.119165
)
;

boundaryField
{
    movingWall
    {
        type            calculated;
        value           nonuniform List<scalar> 
20
(
0.586216
0.0921042
0.36035
-0.24534
0.3868
-0.204148
0.0647793
0.0292703
0.017846
-0.0139971
0.0018335
0.0623875
0.0650182
0.0509959
0.19892
-0.244488
0.312187
0.14432
0.658251
0.0544046
)
;
    }
    fixedWalls
    {
        type            calculated;
        value           nonuniform List<scalar> 
60
(
0.0624646
0.843391
0.103026
0.147449
0.995886
0.110957
0.0418753
0.240157
0.215358
0.0146197
-0.00500205
0.0800571
0.882552
0.0895958
0.0407421
0.133029
0.580258
0.111926
0.336191
0.13218
0.0388338
0.532226
0.841105
0.90768
0.216052
0.273937
0.21136
0.637735
0.623955
0.861597
0.848728
0.880086
0.766083
0.818265
0.42007
0.717687
0.223428
0.97514
0.926725
0.162393
0.640232
0.145375
0.302664
-0.0250518
0.56476
-0.0763073
0.0521997
0.00100728
0.030807
0.0379616
-0.0791701
0.0458856
0.165992
0.784602
0.111846
0.916275
0.221152
0.981078
0.855551
0.508999
)
;
    }
    frontAndBack
    {
        type            empty;
    }
}


// ************************************************************************* //
