/*--------------------------------*- C++ -*----------------------------------*\
| =========                 |                                                 |
| \\      /  F ield         | OpenFOAM: The Open Source CFD Toolbox           |
|  \\    /   O peration     | Version:  2506                                  |
|   \\  /    A nd           | Website:  www.openfoam.com                      |
|    \\/     M anipulation  |                                                 |
\*---------------------------------------------------------------------------*/
FoamFile
{
    version     2.0;
    format      ascii;
    arch        "LSB;label=32;scalar=64";
    class       surfaceScalarField;
    location    "9.375";
    object      fluxField;
}
// * * * * * * * * * * * * * * * * * * * * * * * * * * * * * * * * * * * * * //

dimensions      [0 3 -1 0 0 0 0];

oriented        oriented;

internalField   nonuniform List<scalar> 
760
(
-5e-05
4.6084e-18
-5e-05
-9.97257e-19
-5e-05
2.37719e-19
-5e-05
-5.0834e-20
-5e-05
1.09534e-20
-5e-05
1.41174e-23
-5e-05
6.20933e-21
-5e-05
5.09066e-21
-5e-05
5.49068e-21
-5e-05
4.86955e-21
-5e-05
3.91445e-21
-5e-05
4.06281e-21
-5e-05
5.74606e-21
-5e-05
2.75182e-21
-5e-05
1.94608e-21
-5e-05
5.01603e-21
-5e-05
2.38888e-21
-5e-05
-2.98117e-21
-5e-05
-1.35277e-21
-4.74469e-22
-5e-05
-3.69312e-18
-5e-05
8.09656e-19
-5e-05
-1.87769e-19
-5e-05
4.50076e-20
-5e-05
-5.9878e-21
-5e-05
2.46283e-21
-5e-05
2.53447e-21
-5e-05
3.70047e-21
-5e-05
3.17104e-21
-5e-05
6.31992e-23
-5e-05
2.91587e-21
-5e-05
4.12961e-21
-5e-05
6.54257e-21
-5e-05
5.51799e-21
-5e-05
3.82157e-21
-5e-05
4.10626e-21
-5e-05
2.70067e-22
-5e-05
-7.1636e-21
-5e-05
-7.61429e-21
-1.54369e-21
-5e-05
-1.15831e-18
-5e-05
2.41581e-19
-5e-05
-5.62388e-20
-5e-05
1.53227e-20
-5e-05
1.27424e-21
-5e-05
2.16209e-21
-5e-05
-1.08836e-22
-5e-05
-1.19323e-21
-5e-05
2.519e-22
-5e-05
-3.99449e-22
-5e-05
1.47765e-21
-5e-05
8.46694e-23
-5e-05
2.46994e-21
-5e-05
4.32454e-21
-5e-05
3.56991e-21
-5e-05
9.04502e-22
-5e-05
-1.93105e-21
-5e-05
-5.66316e-21
-5e-05
-7.19436e-21
-3.53009e-21
-5e-05
2.8675e-18
-5e-05
-6.36627e-19
-5e-05
1.48338e-19
-5e-05
-3.27554e-20
-5e-05
9.89173e-21
-5e-05
6.02343e-21
-5e-05
6.10465e-21
-5e-05
3.6489e-21
-5e-05
6.79998e-21
-5e-05
8.17324e-21
-5e-05
6.61572e-21
-5e-05
8.03113e-22
-5e-05
-3.40407e-21
-5e-05
-5.18539e-21
-5e-05
-1.69106e-21
-5e-05
6.41793e-22
-5e-05
-1.29197e-21
-5e-05
-2.00649e-21
-5e-05
-1.73873e-21
-2.05904e-21
-5e-05
-2.72465e-18
-5e-05
5.94282e-19
-5e-05
-1.37758e-19
-5e-05
3.15995e-20
-5e-05
-2.21781e-21
-5e-05
1.31918e-20
-5e-05
1.01767e-20
-5e-05
8.94083e-21
-5e-05
7.32834e-21
-5e-05
6.7766e-21
-5e-05
6.29991e-21
-5e-05
2.91889e-21
-5e-05
-3.88611e-21
-5e-05
-6.17053e-21
-5e-05
-3.93757e-21
-5e-05
-1.20982e-21
-5e-05
-1.36285e-21
-5e-05
-2.91686e-22
-5e-05
1.05312e-21
2.059e-22
-5e-05
8.12708e-19
-5e-05
-1.66765e-19
-5e-05
4.09356e-20
-5e-05
-4.78845e-21
-5e-05
9.69387e-21
-5e-05
1.09428e-20
-5e-05
9.32514e-21
-5e-05
8.03591e-21
-5e-05
2.77491e-21
-5e-05
5.16977e-21
-5e-05
5.72329e-21
-5e-05
1.8559e-21
-5e-05
-6.06116e-21
-5e-05
-5.37871e-21
-5e-05
-6.24081e-21
-5e-05
-4.11293e-21
-5e-05
7.3294e-22
-5e-05
2.01562e-21
-5e-05
1.77383e-21
1.09618e-21
-5e-05
1.98816e-18
-5e-05
-4.38527e-19
-5e-05
1.00588e-19
-5e-05
-1.9369e-20
-5e-05
1.10004e-20
-5e-05
5.68523e-21
-5e-05
7.21057e-21
-5e-05
8.01727e-21
-5e-05
6.0403e-21
-5e-05
7.20538e-21
-5e-05
6.10268e-21
-5e-05
4.24482e-21
-5e-05
-2.66032e-21
-5e-05
-4.60318e-21
-5e-05
-6.68669e-21
-5e-05
-3.97365e-21
-5e-05
8.43928e-22
-5e-05
-1.12484e-23
-5e-05
4.3266e-22
2.0041e-21
-5e-05
-3.13269e-18
-5e-05
6.67191e-19
-5e-05
-1.54379e-19
-5e-05
3.78555e-20
-5e-05
-5.20676e-21
-5e-05
3.22187e-21
-5e-05
5.4626e-21
-5e-05
7.20994e-21
-5e-05
4.60061e-21
-5e-05
-2.23504e-21
-5e-05
-3.86275e-21
-5e-05
2.54711e-21
-5e-05
2.74066e-21
-5e-05
-1.92395e-21
-5e-05
-4.68386e-21
-5e-05
-5.27876e-21
-5e-05
-4.27347e-21
-5e-05
-3.84231e-21
-5e-05
-1.0058e-21
4.36531e-22
-5e-05
2.11181e-18
-5e-05
-4.57871e-19
-5e-05
1.10176e-19
-5e-05
-1.98221e-20
-5e-05
6.95576e-21
-5e-05
-1.74787e-21
-5e-05
2.78634e-21
-5e-05
2.74469e-21
-5e-05
4.35549e-22
-5e-05
-3.32401e-21
-5e-05
-6.8295e-21
-5e-05
-3.63998e-21
-5e-05
-1.22736e-21
-5e-05
-3.84459e-21
-5e-05
-3.05573e-21
-5e-05
-4.91966e-21
-5e-05
-6.07017e-21
-5e-05
-1.07847e-21
-5e-05
4.21776e-22
-9.14725e-22
-5e-05
-3.84842e-19
-5e-05
7.88683e-20
-5e-05
-1.53092e-20
-5e-05
1.00682e-20
-5e-05
3.12774e-21
-5e-05
-1.07951e-21
-5e-05
-3.96464e-21
-5e-05
-6.96125e-21
-5e-05
-4.39798e-21
-5e-05
-3.75278e-22
-5e-05
-2.14033e-21
-5e-05
-3.00423e-21
-5e-05
-1.57284e-21
-5e-05
-3.96577e-21
-5e-05
-2.51671e-21
-5e-05
-5.05782e-21
-5e-05
-5.6306e-21
-5e-05
3.32901e-22
-5e-05
1.36385e-21
2.886e-23
-5e-05
-1.36241e-18
-5e-05
2.90294e-19
-5e-05
-6.34073e-20
-5e-05
1.92075e-20
-5e-05
-1.24609e-21
-5e-05
-2.4475e-21
-5e-05
-5.74666e-21
-5e-05
-8.83759e-21
-5e-05
-5.06857e-21
-5e-05
-5.95065e-21
-5e-05
-4.86996e-21
-5e-05
1.60644e-22
-5e-05
4.72188e-21
-5e-05
2.00451e-21
-5e-05
1.38393e-22
-5e-05
-2.45787e-21
-5e-05
-3.3379e-21
-5e-05
-1.73147e-21
-5e-05
1.72619e-21
7.04028e-23
-5e-05
2.75911e-18
-5e-05
-5.86837e-19
-5e-05
1.36001e-19
-5e-05
-3.43857e-20
-5e-05
-1.33989e-21
-5e-05
-1.02628e-20
-5e-05
-3.76586e-21
-5e-05
-1.6282e-21
-5e-05
-5.72178e-22
-5e-05
-5.6209e-21
-5e-05
-5.60212e-21
-5e-05
-1.6283e-21
-5e-05
3.11234e-21
-5e-05
4.16162e-21
-5e-05
1.40773e-21
-5e-05
1.4882e-21
-5e-05
-1.48047e-21
-5e-05
-2.84749e-21
-5e-05
6.88174e-22
-1.22107e-21
-5e-05
-3.05623e-18
-5e-05
6.89617e-19
-5e-05
-1.53213e-19
-5e-05
3.78997e-20
-5e-05
-1.28851e-20
-5e-05
-3.32957e-21
-5e-05
-3.37213e-21
-5e-05
-1.5157e-21
-5e-05
-3.531e-21
-5e-05
-2.91075e-21
-5e-05
-1.45651e-21
-5e-05
-5.84755e-21
-5e-05
-4.18947e-21
-5e-05
1.77488e-21
-5e-05
-1.34888e-24
-5e-05
-1.37431e-21
-5e-05
-3.8189e-21
-5e-05
-5.90915e-21
-5e-05
-4.10522e-21
-1.36897e-21
-5e-05
1.57118e-18
-5e-05
-3.26141e-19
-5e-05
8.78166e-20
-5e-05
-1.20613e-20
-5e-05
4.93286e-21
-5e-05
-4.49829e-22
-5e-05
-5.41608e-21
-5e-05
-6.73275e-21
-5e-05
-7.17409e-21
-5e-05
-4.70602e-21
-5e-05
-2.5827e-21
-5e-05
-5.90889e-21
-5e-05
-3.26546e-21
-5e-05
3.82994e-21
-5e-05
3.41192e-21
-5e-05
-2.74292e-21
-5e-05
-4.45867e-21
-5e-05
-5.1785e-21
-5e-05
-3.32427e-21
3.65471e-22
-5e-05
1.85619e-18
-5e-05
-4.07828e-19
-5e-05
9.17647e-20
-5e-05
-2.32369e-20
-5e-05
4.19327e-21
-5e-05
-3.84049e-21
-5e-05
-7.25588e-21
-5e-05
-7.50412e-21
-5e-05
-6.62605e-21
-5e-05
-7.20479e-21
-5e-05
-7.25397e-21
-5e-05
-4.73159e-21
-5e-05
-3.19383e-21
-5e-05
-2.62901e-22
-5e-05
2.171e-21
-5e-05
-2.1387e-21
-5e-05
-2.27838e-21
-5e-05
1.80965e-22
-5e-05
8.30583e-22
-5.15726e-22
-5e-05
-3.71671e-18
-5e-05
7.94978e-19
-5e-05
-1.93538e-19
-5e-05
3.97408e-20
-5e-05
-8.22645e-21
-5e-05
-1.33023e-21
-5e-05
-6.88923e-21
-5e-05
-7.97391e-21
-5e-05
-6.5113e-21
-5e-05
-7.10797e-21
-5e-05
-7.91601e-21
-5e-05
-5.03975e-21
-5e-05
-5.91444e-21
-5e-05
-6.2645e-21
-5e-05
-3.68156e-21
-5e-05
-2.27362e-21
-5e-05
3.78385e-22
-5e-05
7.48317e-23
-5e-05
-2.44678e-21
-2.092e-21
-5e-05
2.63201e-18
-5e-05
-5.79331e-19
-5e-05
1.32219e-19
-5e-05
-3.27441e-20
-5e-05
5.12039e-21
-5e-05
-4.85239e-21
-5e-05
-5.62262e-21
-5e-05
-7.02939e-21
-5e-05
-4.93143e-21
-5e-05
-4.32617e-21
-5e-05
-5.19075e-21
-5e-05
-4.20767e-21
-5e-05
-3.75455e-21
-5e-05
-4.00469e-21
-5e-05
-4.74644e-21
-5e-05
-5.24582e-22
-5e-05
2.76865e-21
-5e-05
-6.52493e-22
-5e-05
-5.20684e-21
-9.07138e-22
-5e-05
2.03446e-18
-5e-05
-4.49605e-19
-5e-05
1.00732e-19
-5e-05
-2.97408e-20
-5e-05
-1.75283e-21
-5e-05
-5.82047e-21
-5e-05
-3.34188e-21
-5e-05
-4.48211e-21
-5e-05
-4.45709e-21
-5e-05
-3.15977e-21
-5e-05
-3.55889e-21
-5e-05
-3.52615e-21
-5e-05
-2.87434e-21
-5e-05
-3.84715e-21
-5e-05
-4.90719e-21
-5e-05
2.33195e-21
-5e-05
4.61208e-21
-5e-05
1.13124e-21
-5e-05
-2.93164e-21
-1.84008e-21
-5e-05
-3.6788e-18
-5e-05
7.81877e-19
-5e-05
-1.91793e-19
-5e-05
3.29714e-20
-5e-05
-1.67542e-20
-5e-05
-1.92867e-21
-5e-05
-1.88468e-21
-5e-05
-3.99986e-21
-5e-05
-4.77342e-21
-5e-05
-3.29836e-21
-5e-05
-2.55803e-21
-5e-05
-3.11847e-21
-5e-05
-3.64045e-21
-5e-05
-4.83132e-21
-5e-05
-5.60586e-21
-5e-05
2.06259e-21
-5e-05
2.85776e-21
-5e-05
-1.68688e-21
-5e-05
-1.78886e-21
-3.02814e-21
-5e-05
-5e-05
-5e-05
-5e-05
-5e-05
-5e-05
-5e-05
-5e-05
-5e-05
-5e-05
-5e-05
-5e-05
-5e-05
-5e-05
-5e-05
-5e-05
-5e-05
-5e-05
-5e-05
)
;

boundaryField
{
    movingWall
    {
        type            calculated;
        value           uniform -0;
    }
    fixedWalls
    {
        type            calculated;
        value           nonuniform List<scalar> 
60
(
5e-05
5e-05
5e-05
5e-05
5e-05
5e-05
5e-05
5e-05
5e-05
5e-05
5e-05
5e-05
5e-05
5e-05
5e-05
5e-05
5e-05
5e-05
5e-05
5e-05
-5e-05
-5e-05
-5e-05
-5e-05
-5e-05
-5e-05
-5e-05
-5e-05
-5e-05
-5e-05
-5e-05
-5e-05
-5e-05
-5e-05
-5e-05
-5e-05
-5e-05
-5e-05
-5e-05
-5e-05
0
0
0
0
0
0
0
0
0
0
0
0
0
0
0
0
0
0
0
0
)
;
    }
    frontAndBack
    {
        type            empty;
    }
}


// ************************************************************************* //
