/*--------------------------------*- C++ -*----------------------------------*\
| =========                 |                                                 |
| \\      /  F ield         | OpenFOAM: The Open Source CFD Toolbox           |
|  \\    /   O peration     | Version:  2506                                  |
|   \\  /    A nd           | Website:  www.openfoam.com                      |
|    \\/     M anipulation  |                                                 |
\*---------------------------------------------------------------------------*/
FoamFile
{
    version     2.0;
    format      ascii;
    arch        "LSB;label=32;scalar=64";
    class       volTensorField;
    location    "9.375";
    object      gradU;
}
// * * * * * * * * * * * * * * * * * * * * * * * * * * * * * * * * * * * * * //

dimensions      [0 0 -1 0 0 0 0];

internalField   nonuniform List<tensor> 
400
(
(-1.32815e-12 1.34238e-11 0 1.70762e-12 1.84336e-11 0 0 0 0)
(2.03288e-12 -1.62741e-11 0 -3.79471e-13 -3.98903e-12 0 0 0 0)
(-5.42101e-13 3.54162e-12 0 8.13152e-14 9.50877e-13 0 0 0 0)
(2.71051e-14 -8.45975e-13 0 5.42101e-14 -2.03336e-13 0 0 0 0)
(0 1.91597e-13 0 5.42101e-14 4.38136e-14 0 0 0 0)
(0 -2.73013e-14 0 5.42101e-14 5.64697e-17 0 0 0 0)
(-5.42101e-14 8.69435e-15 0 5.42101e-14 2.48373e-14 0 0 0 0)
(-2.71051e-14 -2.90158e-15 0 5.42101e-14 2.03627e-14 0 0 0 0)
(0 4.07703e-15 0 2.71051e-14 2.19627e-14 0 0 0 0)
(-5.42101e-14 -5.44894e-15 0 5.42101e-14 1.94782e-14 0 0 0 0)
(0 -6.35748e-15 0 2.71051e-14 1.56578e-14 0 0 0 0)
(0 7.48476e-15 0 2.71051e-14 1.62512e-14 0 0 0 0)
(-2.71051e-14 4.18715e-15 0 0 2.29842e-14 0 0 0 0)
(0 -5.08621e-15 0 0 1.10073e-14 0 0 0 0)
(0 -9.23835e-17 0 -5.42101e-14 7.78433e-15 0 0 0 0)
(-2.71051e-14 -1.95798e-15 0 0 2.00641e-14 0 0 0 0)
(-5.42101e-14 -8.64147e-15 0 -5.42101e-14 9.55552e-15 0 0 0 0)
(5.42101e-14 -3.22711e-17 0 -5.42101e-14 -1.19247e-14 0 0 0 0)
(0 -1.12441e-15 0 0 -5.41107e-15 0 0 0 0)
(0 -2.48238e-15 0 0 -1.89788e-15 0 0 0 0)
(2.6834e-12 1.02074e-12 0 7.04731e-13 -3.32061e-11 0 0 0 0)
(-3.63208e-12 -1.20863e-12 0 -3.52366e-13 7.22765e-12 0 0 0 0)
(9.21572e-13 2.44073e-13 0 -1.35525e-13 -1.70196e-12 0 0 0 0)
(-8.13152e-14 -6.10884e-14 0 -1.0842e-13 3.83366e-13 0 0 0 0)
(5.42101e-14 1.17952e-14 0 -1.0842e-13 -6.77648e-14 0 0 0 0)
(0 8.32501e-15 0 -1.35525e-13 9.79485e-15 0 0 0 0)
(2.71051e-14 1.16118e-14 0 -1.35525e-13 -1.46994e-14 0 0 0 0)
(0 2.69793e-17 0 -1.0842e-13 -5.56076e-15 0 0 0 0)
(0 -4.9615e-15 0 -1.0842e-13 -9.27854e-15 0 0 0 0)
(8.13152e-14 -8.55964e-16 0 -5.42101e-14 -1.92254e-14 0 0 0 0)
(-2.71051e-14 3.13054e-15 0 -8.13152e-14 -3.99433e-15 0 0 0 0)
(-5.42101e-14 -1.58352e-16 0 -8.13152e-14 2.67197e-16 0 0 0 0)
(0 -9.43113e-15 0 0 3.18607e-15 0 0 0 0)
(-2.71051e-14 -1.01137e-14 0 2.71051e-14 1.10647e-14 0 0 0 0)
(0 9.14922e-15 0 0 7.50196e-15 0 0 0 0)
(2.71051e-14 3.72917e-15 0 0 -3.63909e-15 0 0 0 0)
(-2.71051e-14 -2.33473e-14 0 5.42101e-14 -8.47525e-15 0 0 0 0)
(2.71051e-14 -1.49343e-14 0 0 -1.67297e-14 0 0 0 0)
(5.42101e-14 1.11512e-14 0 0 -2.50461e-14 0 0 0 0)
(0 9.79133e-15 0 0 -4.27688e-15 0 0 0 0)
(-9.21572e-13 -1.25546e-11 0 -5.80048e-12 1.01392e-11 0 0 0 0)
(1.19262e-12 1.523e-11 0 1.5992e-12 -2.2723e-12 0 0 0 0)
(-3.52366e-13 -3.30267e-12 0 -2.71051e-14 5.26123e-13 0 0 0 0)
(2.71051e-14 7.88215e-13 0 1.0842e-13 -1.18739e-13 0 0 0 0)
(-2.71051e-14 -1.81974e-13 0 1.0842e-13 2.90481e-14 0 0 0 0)
(0 2.57641e-14 0 8.13152e-14 -1.20296e-15 0 0 0 0)
(0 -6.66125e-15 0 2.71051e-14 -1.05732e-14 0 0 0 0)
(0 2.51932e-15 0 0 -1.95748e-14 0 0 0 0)
(2.71051e-14 -9.5876e-15 0 8.13152e-14 -1.16766e-14 0 0 0 0)
(-2.71051e-14 -1.64733e-16 0 -5.42101e-14 -1.85059e-15 0 0 0 0)
(2.71051e-14 1.31351e-14 0 0 -5.75289e-15 0 0 0 0)
(5.42101e-14 1.46652e-14 0 0 -1.61798e-14 0 0 0 0)
(5.42101e-14 1.49847e-14 0 -5.42101e-14 -1.62905e-14 0 0 0 0)
(0 -7.70318e-16 0 -2.71051e-14 -4.77382e-15 0 0 0 0)
(-5.42101e-14 -1.47962e-14 0 8.13152e-14 -1.00666e-15 0 0 0 0)
(0 -1.79352e-14 0 0 -1.2807e-14 0 0 0 0)
(0 -2.17321e-14 0 0 -8.80446e-15 0 0 0 0)
(0 -1.66031e-14 0 5.42101e-14 6.00177e-15 0 0 0 0)
(0 1.13284e-14 0 2.71051e-14 1.67973e-15 0 0 0 0)
(0 2.68406e-14 0 2.71051e-14 -7.9456e-15 0 0 0 0)
(-1.57209e-12 8.88767e-12 0 4.06576e-12 1.61032e-11 0 0 0 0)
(2.08709e-12 -1.08217e-11 0 -9.75782e-13 -3.51283e-12 0 0 0 0)
(-5.42101e-13 2.39763e-12 0 1.35525e-13 8.18306e-13 0 0 0 0)
(5.42101e-14 -5.58163e-13 0 2.71051e-14 -1.92313e-13 0 0 0 0)
(0 1.29332e-13 0 5.42101e-14 3.447e-14 0 0 0 0)
(0 -3.12964e-14 0 5.42101e-14 1.54454e-14 0 0 0 0)
(-2.71051e-14 -6.76001e-15 0 1.0842e-13 2.48539e-14 0 0 0 0)
(-2.71051e-14 -1.07638e-15 0 5.42101e-14 1.93685e-14 0 0 0 0)
(0 1.27627e-14 0 2.71051e-14 2.61923e-14 0 0 0 0)
(-5.42101e-14 5.06772e-15 0 5.42101e-14 3.42908e-14 0 0 0 0)
(0 -1.11986e-14 0 5.42101e-14 2.05523e-14 0 0 0 0)
(-8.13152e-14 -1.0696e-14 0 -2.71051e-14 2.87377e-15 0 0 0 0)
(0 1.97482e-15 0 0 -2.3496e-14 0 0 0 0)
(8.13152e-14 5.1702e-15 0 -5.42101e-14 -3.80397e-14 0 0 0 0)
(8.13152e-14 1.11602e-15 0 -2.71051e-14 -2.10439e-14 0 0 0 0)
(0 -4.06863e-15 0 2.71051e-14 -1.05083e-15 0 0 0 0)
(0 -4.53855e-15 0 0 2.5563e-15 0 0 0 0)
(2.71051e-14 -4.45014e-15 0 0 1.46266e-14 0 0 0 0)
(0 -2.79614e-15 0 2.71051e-14 2.18225e-14 0 0 0 0)
(-5.42101e-14 1.60572e-14 0 2.71051e-14 5.88421e-15 0 0 0 0)
(2.11419e-12 3.58143e-14 0 2.98156e-13 -2.23686e-11 0 0 0 0)
(-2.71051e-12 -5.49007e-14 0 -1.89735e-13 4.92364e-12 0 0 0 0)
(6.77626e-13 1.78517e-14 0 -2.71051e-14 -1.14438e-12 0 0 0 0)
(-5.42101e-14 4.37945e-15 0 -5.42101e-14 2.5742e-13 0 0 0 0)
(2.71051e-14 2.57837e-14 0 -8.13152e-14 -4.84381e-14 0 0 0 0)
(-2.71051e-14 1.6148e-14 0 -1.0842e-13 2.86734e-14 0 0 0 0)
(0 -2.73809e-15 0 -5.42101e-14 1.62882e-14 0 0 0 0)
(0 3.85769e-15 0 -5.42101e-14 2.11677e-14 0 0 0 0)
(0 5.33464e-15 0 -2.71051e-14 2.11343e-15 0 0 0 0)
(-2.71051e-14 -5.80473e-15 0 -5.42101e-14 -5.58657e-15 0 0 0 0)
(-2.71051e-14 -1.82819e-14 0 0 -1.26327e-15 0 0 0 0)
(2.71051e-14 -2.93832e-14 0 0 8.4631e-15 0 0 0 0)
(2.71051e-14 -2.59288e-14 0 8.13152e-14 -1.92817e-15 0 0 0 0)
(-2.71051e-14 1.68185e-15 0 5.42101e-14 -3.94058e-15 0 0 0 0)
(-2.71051e-14 2.21927e-14 0 -5.42101e-14 -8.98603e-15 0 0 0 0)
(0 5.66497e-15 0 -2.71051e-14 -7.40644e-15 0 0 0 0)
(0 -6.05461e-15 0 0 -2.83507e-16 0 0 0 0)
(0 2.6631e-15 0 -5.42101e-14 6.85924e-15 0 0 0 0)
(2.71051e-14 2.58597e-15 0 -5.42101e-14 1.11674e-14 0 0 0 0)
(-2.71051e-14 -8.6613e-16 0 -5.42101e-14 9.05975e-15 0 0 0 0)
(-1.38236e-12 -8.55728e-12 0 -2.57498e-12 1.41494e-11 0 0 0 0)
(1.73472e-12 1.04025e-11 0 7.31836e-13 -3.04419e-12 0 0 0 0)
(-4.33681e-13 -2.26858e-12 0 -2.71051e-14 7.14774e-13 0 0 0 0)
(0 5.37781e-13 0 -5.42101e-14 -1.45552e-13 0 0 0 0)
(-5.42101e-14 -9.94147e-14 0 0 4.76467e-14 0 0 0 0)
(5.42101e-14 3.34299e-14 0 5.42101e-14 -8.99603e-15 0 0 0 0)
(0 -1.42657e-14 0 2.71051e-14 -3.40619e-15 0 0 0 0)
(-5.42101e-14 -1.52511e-14 0 5.42101e-14 -3.61969e-15 0 0 0 0)
(5.42101e-14 -1.39916e-14 0 5.42101e-14 -1.82137e-14 0 0 0 0)
(0 1.69102e-15 0 5.42101e-14 -6.42728e-15 0 0 0 0)
(2.71051e-14 2.85104e-15 0 0 -2.30646e-15 0 0 0 0)
(-2.71051e-14 -1.13609e-14 0 8.13152e-14 -4.25196e-15 0 0 0 0)
(2.71051e-14 -1.04289e-14 0 0 -8.70019e-15 0 0 0 0)
(-2.71051e-14 -1.88766e-15 0 0 3.16727e-15 0 0 0 0)
(2.71051e-14 -2.34984e-15 0 0 -9.21296e-15 0 0 0 0)
(8.13152e-14 4.6339e-15 0 2.71051e-14 -1.16125e-14 0 0 0 0)
(-2.71051e-14 9.72713e-15 0 0 8.38315e-15 0 0 0 0)
(0 7.00075e-15 0 0 9.22921e-15 0 0 0 0)
(0 -5.95627e-16 0 0 2.88286e-15 0 0 0 0)
(0 -4.16993e-15 0 0 3.56112e-15 0 0 0 0)
(2.43945e-13 1.11411e-11 0 2.19551e-12 4.70182e-12 0 0 0 0)
(-1.0842e-13 -1.34896e-11 0 -7.31836e-13 -1.08705e-12 0 0 0 0)
(-2.71051e-14 2.91649e-12 0 -5.42101e-14 2.38611e-13 0 0 0 0)
(-5.42101e-14 -6.62748e-13 0 -2.71051e-14 -5.83224e-14 0 0 0 0)
(2.71051e-14 1.6234e-13 0 -5.42101e-14 5.22633e-15 0 0 0 0)
(2.71051e-14 -3.49048e-14 0 0 -2.10301e-14 0 0 0 0)
(2.71051e-14 2.63825e-15 0 -8.13152e-14 -8.45829e-15 0 0 0 0)
(2.71051e-14 -1.09498e-14 0 0 -7.45514e-17 0 0 0 0)
(-2.71051e-14 2.52704e-15 0 -5.42101e-14 1.30615e-14 0 0 0 0)
(-5.42101e-14 1.01025e-14 0 0 8.14243e-15 0 0 0 0)
(0 -1.61065e-14 0 0 1.51756e-15 0 0 0 0)
(0 -3.57769e-14 0 5.42101e-14 9.55571e-15 0 0 0 0)
(-2.71051e-14 -1.85096e-14 0 2.71051e-14 1.36034e-14 0 0 0 0)
(0 1.16908e-15 0 0 3.10215e-15 0 0 0 0)
(0 7.41298e-15 0 5.42101e-14 -1.78354e-15 0 0 0 0)
(-2.71051e-14 2.32611e-14 0 -2.71051e-14 5.57102e-16 0 0 0 0)
(-2.71051e-14 1.47871e-14 0 0 4.43953e-16 0 0 0 0)
(0 -2.83718e-15 0 0 -8.10746e-15 0 0 0 0)
(2.71051e-14 -3.08212e-15 0 0 -5.36469e-15 0 0 0 0)
(-2.71051e-14 -7.31011e-15 0 2.71051e-14 3.63169e-15 0 0 0 0)
(5.42101e-14 -4.94251e-12 0 -1.0842e-12 -2.04834e-11 0 0 0 0)
(-5.42101e-13 5.93926e-12 0 3.25261e-13 4.42287e-12 0 0 0 0)
(2.71051e-13 -1.23986e-12 0 -8.13152e-14 -1.01987e-12 0 0 0 0)
(2.71051e-14 3.04396e-13 0 0 2.28898e-13 0 0 0 0)
(0 -6.21225e-14 0 -2.71051e-14 -6.48288e-14 0 0 0 0)
(5.42101e-14 1.97453e-14 0 -8.13152e-14 -9.85345e-15 0 0 0 0)
(-5.42101e-14 6.68989e-15 0 -2.71051e-14 -6.99186e-15 0 0 0 0)
(5.42101e-14 6.26871e-15 0 -8.13152e-14 -3.2293e-15 0 0 0 0)
(0 -5.77459e-15 0 -8.13152e-14 -5.75876e-15 0 0 0 0)
(5.42101e-14 -9.85296e-15 0 -5.42101e-14 -3.77617e-14 0 0 0 0)
(8.13152e-14 4.26432e-15 0 -5.42101e-14 -3.98617e-14 0 0 0 0)
(2.71051e-14 7.24921e-16 0 -5.42101e-14 -6.79086e-15 0 0 0 0)
(-8.13152e-14 -1.68824e-14 0 -2.71051e-14 2.16039e-14 0 0 0 0)
(0 -1.72746e-14 0 0 1.07169e-14 0 0 0 0)
(-2.71051e-14 -4.89489e-15 0 0 8.01132e-15 0 0 0 0)
(0 6.86139e-15 0 -8.13152e-14 -5.22043e-15 0 0 0 0)
(2.71051e-14 1.06257e-15 0 0 -2.04696e-14 0 0 0 0)
(5.42101e-14 1.19211e-15 0 5.42101e-14 -1.53243e-14 0 0 0 0)
(0 1.11435e-14 0 0 -5.75385e-15 0 0 0 0)
(0 -2.43694e-15 0 -2.71051e-14 -6.27028e-15 0 0 0 0)
(-5.42101e-13 -4.91948e-12 0 1.35525e-13 2.0978e-11 0 0 0 0)
(9.48677e-13 5.97398e-12 0 8.13152e-14 -4.50025e-12 0 0 0 0)
(-4.06576e-13 -1.27748e-12 0 1.35525e-13 1.05822e-12 0 0 0 0)
(0 2.92292e-13 0 2.71051e-14 -2.3071e-13 0 0 0 0)
(0 -7.64119e-14 0 8.13152e-14 4.86501e-14 0 0 0 0)
(0 2.29321e-14 0 2.71051e-14 -1.9879e-14 0 0 0 0)
(0 9.2624e-15 0 8.13152e-14 -1.07051e-14 0 0 0 0)
(0 -9.71669e-15 0 2.71051e-14 -1.7861e-14 0 0 0 0)
(2.71051e-14 -3.20054e-14 0 1.0842e-13 -1.66602e-14 0 0 0 0)
(-2.71051e-14 -2.40005e-14 0 1.0842e-13 -4.35587e-15 0 0 0 0)
(-5.42101e-14 1.48643e-14 0 5.42101e-14 -1.1867e-14 0 0 0 0)
(5.42101e-14 2.56887e-14 0 0 -2.47484e-14 0 0 0 0)
(2.71051e-14 -1.00182e-15 0 2.71051e-14 -1.58721e-14 0 0 0 0)
(2.71051e-14 -1.24235e-14 0 0 -7.68256e-15 0 0 0 0)
(-5.42101e-14 -8.52436e-15 0 2.71051e-14 6.51252e-15 0 0 0 0)
(0 -5.21983e-15 0 2.71051e-14 1.43642e-15 0 0 0 0)
(2.71051e-14 4.68323e-15 0 2.71051e-14 -7.18677e-15 0 0 0 0)
(-2.71051e-14 1.18786e-14 0 2.71051e-14 1.10554e-14 0 0 0 0)
(0 5.97184e-15 0 0 5.71031e-15 0 0 0 0)
(0 4.71403e-15 0 2.71051e-14 -5.40502e-15 0 0 0 0)
(2.98156e-13 1.15352e-11 0 0 -9.9866e-12 0 0 0 0)
(-5.69206e-13 -1.39805e-11 0 -2.71051e-13 2.14696e-12 0 0 0 0)
(2.1684e-13 3.02968e-12 0 -8.13152e-14 -5.01941e-13 0 0 0 0)
(0 -7.05174e-13 0 8.13152e-14 1.19561e-13 0 0 0 0)
(0 1.48709e-13 0 0 -1.53121e-14 0 0 0 0)
(0 -3.96098e-14 0 5.42101e-14 2.67347e-15 0 0 0 0)
(0 8.70787e-15 0 0 -2.70039e-14 0 0 0 0)
(8.13152e-14 3.13544e-16 0 1.0842e-13 -3.88238e-14 0 0 0 0)
(2.71051e-14 7.73053e-15 0 2.71051e-14 -1.93341e-14 0 0 0 0)
(0 -5.05971e-15 0 0 1.17949e-14 0 0 0 0)
(-2.71051e-14 -1.61282e-14 0 5.42101e-14 1.87567e-14 0 0 0 0)
(0 -3.28018e-15 0 2.71051e-14 2.54301e-15 0 0 0 0)
(0 1.83375e-16 0 0 -1.38194e-15 0 0 0 0)
(-2.71051e-14 5.11003e-15 0 0 -4.84701e-16 0 0 0 0)
(0 4.2241e-15 0 -2.71051e-14 2.15607e-15 0 0 0 0)
(2.71051e-14 -6.8379e-15 0 5.42101e-14 -5.52641e-16 0 0 0 0)
(0 1.06815e-14 0 -2.71051e-14 1.75827e-15 0 0 0 0)
(-2.71051e-14 1.40892e-14 0 -2.71051e-14 5.6455e-15 0 0 0 0)
(2.71051e-14 -5.31685e-15 0 0 3.76831e-15 0 0 0 0)
(-2.71051e-14 -2.74223e-15 0 0 3.77434e-15 0 0 0 0)
(-7.58942e-13 -1.27591e-11 0 5.42101e-13 -3.91028e-12 0 0 0 0)
(8.13152e-13 1.54586e-11 0 1.35525e-13 8.45703e-13 0 0 0 0)
(-1.0842e-13 -3.30488e-12 0 1.35525e-13 -1.92393e-13 0 0 0 0)
(1.0842e-13 7.78921e-13 0 -8.13152e-14 3.65573e-14 0 0 0 0)
(0 -1.93299e-13 0 5.42101e-14 -1.74953e-14 0 0 0 0)
(0 1.12403e-14 0 5.42101e-14 -5.47199e-15 0 0 0 0)
(0 -3.22349e-14 0 8.13152e-14 -7.12805e-15 0 0 0 0)
(0 -2.0469e-15 0 0 -7.50534e-15 0 0 0 0)
(-2.71051e-14 1.86134e-14 0 0 -2.68236e-15 0 0 0 0)
(2.71051e-14 1.40903e-14 0 -2.71051e-14 -2.23015e-14 0 0 0 0)
(0 5.61237e-15 0 0 -1.09185e-14 0 0 0 0)
(0 5.55013e-15 0 2.71051e-14 1.26595e-14 0 0 0 0)
(0 -4.02954e-15 0 2.71051e-14 2.51789e-14 0 0 0 0)
(-5.42101e-14 -8.88551e-15 0 5.42101e-14 2.38811e-14 0 0 0 0)
(0 -8.5923e-15 0 2.71051e-14 1.06204e-14 0 0 0 0)
(0 -5.61764e-15 0 2.71051e-14 1.03998e-14 0 0 0 0)
(-5.42101e-14 1.08814e-14 0 0 9.17081e-15 0 0 0 0)
(5.42101e-14 1.38886e-14 0 0 -8.25747e-15 0 0 0 0)
(0 4.10069e-15 0 2.71051e-14 1.44936e-15 0 0 0 0)
(0 -2.82862e-15 0 0 1.66171e-16 0 0 0 0)
(9.21572e-13 8.47066e-12 0 6.23416e-13 1.64861e-11 0 0 0 0)
(-8.94467e-13 -1.02626e-11 0 -2.71051e-13 -3.50852e-12 0 0 0 0)
(2.71051e-14 2.22053e-12 0 -2.71051e-14 7.97635e-13 0 0 0 0)
(-1.35525e-13 -5.30277e-13 0 0 -2.14373e-13 0 0 0 0)
(1.35525e-13 1.06679e-13 0 -1.0842e-13 -3.75206e-16 0 0 0 0)
(2.71051e-14 -2.92425e-14 0 -5.42101e-14 -3.12611e-14 0 0 0 0)
(0 6.67452e-15 0 -5.42101e-14 7.92318e-15 0 0 0 0)
(0 4.75924e-15 0 -1.0842e-13 2.88375e-14 0 0 0 0)
(-2.71051e-14 -7.06562e-15 0 -1.0842e-13 1.79856e-14 0 0 0 0)
(0 -1.32959e-14 0 -2.71051e-14 1.31901e-15 0 0 0 0)
(0 1.88328e-14 0 -5.42101e-14 -2.92862e-15 0 0 0 0)
(0 3.28173e-14 0 -1.35525e-13 -7.15578e-15 0 0 0 0)
(2.71051e-14 1.1405e-14 0 -8.13152e-14 -6.43816e-15 0 0 0 0)
(-2.71051e-14 -9.44846e-15 0 -2.71051e-14 8.62846e-15 0 0 0 0)
(0 -9.25723e-15 0 -8.13152e-14 5.07733e-15 0 0 0 0)
(-2.71051e-14 -8.28752e-15 0 -2.71051e-14 1.57843e-14 0 0 0 0)
(-2.71051e-14 -7.97574e-15 0 0 7.42971e-15 0 0 0 0)
(2.71051e-14 6.36774e-15 0 -5.42101e-14 -4.46407e-15 0 0 0 0)
(0 3.10679e-15 0 -2.71051e-14 -4.15207e-15 0 0 0 0)
(-2.71051e-14 -4.35776e-15 0 0 -5.1659e-15 0 0 0 0)
(-3.52366e-13 2.18439e-13 0 -1.16552e-12 -2.32613e-11 0 0 0 0)
(8.13152e-14 -2.29813e-13 0 3.79471e-13 5.10582e-12 0 0 0 0)
(1.89735e-13 -1.07284e-14 0 -8.13152e-14 -1.15686e-12 0 0 0 0)
(8.13152e-14 -1.90885e-14 0 5.42101e-14 2.89142e-13 0 0 0 0)
(-5.42101e-14 -1.01876e-14 0 0 -4.61808e-14 0 0 0 0)
(-2.71051e-14 1.95387e-14 0 -5.42101e-14 2.77329e-14 0 0 0 0)
(0 2.78638e-14 0 -8.13152e-14 1.57493e-15 0 0 0 0)
(-5.42101e-14 8.01549e-15 0 -2.71051e-14 4.49995e-16 0 0 0 0)
(5.42101e-14 -8.90518e-15 0 0 -1.18353e-14 0 0 0 0)
(0 -6.82388e-15 0 0 1.08406e-14 0 0 0 0)
(-5.42101e-14 -2.86241e-15 0 0 1.65824e-14 0 0 0 0)
(0 2.04059e-15 0 0 -1.6877e-14 0 0 0 0)
(8.13152e-14 1.17547e-14 0 0 -2.92072e-14 0 0 0 0)
(-2.71051e-14 2.62998e-15 0 -2.71051e-14 -9.54698e-15 0 0 0 0)
(0 -1.43647e-15 0 0 -5.6363e-15 0 0 0 0)
(2.71051e-14 -3.26526e-15 0 -5.42101e-14 -1.14501e-14 0 0 0 0)
(0 -9.36699e-15 0 0 -9.35372e-15 0 0 0 0)
(0 2.30683e-15 0 0 -1.22467e-14 0 0 0 0)
(5.42101e-14 3.39886e-15 0 0 -1.91736e-14 0 0 0 0)
(0 6.48935e-15 0 0 -5.91587e-16 0 0 0 0)
(1.35525e-13 -9.68488e-12 0 -1.5992e-12 1.85096e-11 0 0 0 0)
(1.89735e-13 1.18419e-11 0 3.79471e-13 -4.06303e-12 0 0 0 0)
(-2.71051e-13 -2.59614e-12 0 -2.71051e-14 9.64118e-13 0 0 0 0)
(-5.42101e-14 5.804e-13 0 0 -1.99844e-13 0 0 0 0)
(2.71051e-14 -1.54729e-13 0 5.42101e-14 7.12718e-14 0 0 0 0)
(-2.71051e-14 1.85132e-14 0 5.42101e-14 1.1519e-14 0 0 0 0)
(-5.42101e-14 -2.06084e-14 0 5.42101e-14 -8.17581e-15 0 0 0 0)
(5.42101e-14 -8.65098e-15 0 2.71051e-14 -2.08682e-14 0 0 0 0)
(5.42101e-14 3.325e-15 0 5.42101e-14 -1.45724e-14 0 0 0 0)
(0 1.51218e-14 0 0 -7.18109e-15 0 0 0 0)
(0 -8.88481e-15 0 5.42101e-14 -4.50474e-15 0 0 0 0)
(0 -1.29724e-14 0 1.0842e-13 -2.45336e-16 0 0 0 0)
(0 1.8735e-14 0 2.71051e-14 3.69603e-15 0 0 0 0)
(0 1.41225e-14 0 2.71051e-14 8.22026e-15 0 0 0 0)
(-5.42101e-14 -1.11603e-14 0 8.13152e-14 1.36531e-14 0 0 0 0)
(2.71051e-14 -1.20049e-14 0 5.42101e-14 -5.47442e-15 0 0 0 0)
(0 -8.77234e-15 0 2.71051e-14 -2.5591e-15 0 0 0 0)
(-2.71051e-14 -3.45213e-15 0 5.42101e-14 2.92262e-15 0 0 0 0)
(2.71051e-14 1.47619e-14 0 0 3.12382e-15 0 0 0 0)
(-2.71051e-14 1.54074e-14 0 0 6.93776e-15 0 0 0 0)
(-1.5992e-12 1.4665e-11 0 2.71051e-12 1.14003e-12 0 0 0 0)
(1.65341e-12 -1.77753e-11 0 -9.21572e-13 -3.2675e-13 0 0 0 0)
(-2.43945e-13 3.85246e-12 0 -1.0842e-13 1.57923e-14 0 0 0 0)
(1.89735e-13 -9.11935e-13 0 0 -4.47024e-14 0 0 0 0)
(-8.13152e-14 2.01175e-13 0 -8.13152e-14 -2.95834e-15 0 0 0 0)
(8.13152e-14 -5.99089e-14 0 -8.13152e-14 -1.35626e-14 0 0 0 0)
(0 -4.52335e-15 0 -5.42101e-14 -7.35921e-15 0 0 0 0)
(-5.42101e-14 1.61893e-15 0 0 -3.08546e-15 0 0 0 0)
(0 4.78194e-15 0 -5.42101e-14 2.19218e-15 0 0 0 0)
(0 3.24375e-15 0 -8.13152e-14 -9.99507e-15 0 0 0 0)
(8.13152e-14 4.07334e-15 0 -1.0842e-13 -1.86851e-14 0 0 0 0)
(-2.71051e-14 1.02414e-14 0 -8.13152e-14 4.70917e-15 0 0 0 0)
(0 2.02203e-14 0 -8.13152e-14 2.86493e-16 0 0 0 0)
(2.71051e-14 1.2587e-14 0 -2.71051e-14 -1.63714e-14 0 0 0 0)
(0 -1.51312e-14 0 -2.71051e-14 -4.96368e-15 0 0 0 0)
(-2.71051e-14 -1.94774e-14 0 0 2.4169e-15 0 0 0 0)
(0 -9.69955e-16 0 -2.71051e-14 8.72119e-15 0 0 0 0)
(0 7.98975e-15 0 0 2.14378e-14 0 0 0 0)
(0 7.41401e-15 0 -5.42101e-14 1.66194e-14 0 0 0 0)
(0 -3.57223e-15 0 -2.71051e-14 -3.52479e-15 0 0 0 0)
(1.89735e-12 -8.8716e-12 0 -9.75782e-13 -2.22916e-11 0 0 0 0)
(-2.57498e-12 1.07176e-11 0 5.42101e-13 4.81123e-12 0 0 0 0)
(6.77626e-13 -2.31409e-12 0 1.89735e-13 -1.14121e-12 0 0 0 0)
(-8.13152e-14 5.61649e-13 0 0 2.51911e-13 0 0 0 0)
(0 -1.2359e-13 0 8.13152e-14 -4.96789e-14 0 0 0 0)
(0 1.41123e-14 0 8.13152e-14 1.0041e-14 0 0 0 0)
(0 -1.01312e-14 0 5.42101e-14 1.4666e-15 0 0 0 0)
(2.71051e-14 9.00412e-16 0 5.42101e-14 -1.87917e-15 0 0 0 0)
(0 -3.58461e-15 0 8.13152e-14 4.58985e-16 0 0 0 0)
(-2.71051e-14 -5.75544e-15 0 8.13152e-14 3.87249e-16 0 0 0 0)
(0 5.81943e-15 0 0 -2.64816e-15 0 0 0 0)
(0 5.99919e-15 0 0 -1.23265e-15 0 0 0 0)
(2.71051e-14 -2.34554e-15 0 5.42101e-14 -1.08824e-14 0 0 0 0)
(0 8.87231e-15 0 0 -2.40064e-14 0 0 0 0)
(5.42101e-14 7.62798e-15 0 -5.42101e-14 -2.34102e-14 0 0 0 0)
(0 1.67993e-15 0 0 -5.39679e-16 0 0 0 0)
(-5.42101e-14 1.02486e-14 0 -5.42101e-14 1.0627e-14 0 0 0 0)
(0 4.44608e-15 0 -5.42101e-14 -4.24532e-16 0 0 0 0)
(5.42101e-14 -1.02008e-14 0 5.42101e-14 -1.31094e-14 0 0 0 0)
(0 2.31281e-15 0 2.71051e-14 -6.30509e-15 0 0 0 0)
(-2.00577e-12 -2.81534e-12 0 -2.84603e-12 2.53949e-11 0 0 0 0)
(2.79182e-12 3.37507e-12 0 7.86047e-13 -5.49724e-12 0 0 0 0)
(-7.86047e-13 -7.06857e-13 0 -5.42101e-14 1.30303e-12 0 0 0 0)
(8.13152e-14 1.79597e-13 0 8.13152e-14 -2.8994e-13 0 0 0 0)
(-2.71051e-14 -4.06945e-14 0 2.71051e-14 5.33873e-14 0 0 0 0)
(0 -8.76344e-15 0 5.42101e-14 -1.40887e-14 0 0 0 0)
(0 -1.64436e-14 0 5.42101e-14 5.06646e-15 0 0 0 0)
(0 6.11313e-16 0 5.42101e-14 3.77809e-15 0 0 0 0)
(0 7.04836e-15 0 2.71051e-14 6.31948e-15 0 0 0 0)
(-2.71051e-14 1.36603e-16 0 5.42101e-14 1.11272e-14 0 0 0 0)
(-2.71051e-14 2.45344e-15 0 8.13152e-14 1.0901e-14 0 0 0 0)
(2.71051e-14 2.00709e-15 0 8.13152e-14 3.32834e-15 0 0 0 0)
(0 -2.55343e-15 0 5.42101e-14 8.63959e-15 0 0 0 0)
(-2.71051e-14 5.92217e-17 0 5.42101e-14 9.03921e-15 0 0 0 0)
(0 8.33555e-15 0 8.13152e-14 -4.2595e-15 0 0 0 0)
(-5.42101e-14 1.45599e-14 0 2.71051e-14 6.99614e-15 0 0 0 0)
(0 -8.54808e-16 0 5.42101e-14 9.56108e-15 0 0 0 0)
(5.42101e-14 -1.57467e-14 0 8.13152e-14 -2.9093e-15 0 0 0 0)
(2.71051e-14 1.53345e-15 0 2.71051e-14 -1.10403e-14 0 0 0 0)
(-2.71051e-14 1.58423e-14 0 -2.71051e-14 4.73944e-15 0 0 0 0)
(-1.89735e-13 1.1026e-11 0 6.26127e-12 -2.39019e-12 0 0 0 0)
(2.1684e-13 -1.33742e-11 0 -1.73472e-12 5.18904e-13 0 0 0 0)
(-2.71051e-14 2.89321e-12 0 1.0842e-13 -1.25947e-13 0 0 0 0)
(5.42101e-14 -6.8799e-13 0 -1.35525e-13 1.20131e-14 0 0 0 0)
(0 1.52261e-13 0 -8.13152e-14 -2.74929e-14 0 0 0 0)
(0 -3.42086e-14 0 -2.71051e-14 -3.87229e-15 0 0 0 0)
(0 7.73557e-15 0 -5.42101e-14 9.12295e-15 0 0 0 0)
(-2.71051e-14 2.15343e-15 0 -1.0842e-13 1.01891e-14 0 0 0 0)
(2.71051e-14 3.76453e-15 0 -1.0842e-13 1.89736e-15 0 0 0 0)
(0 -1.17389e-15 0 -2.71051e-14 4.66561e-15 0 0 0 0)
(0 -1.97944e-15 0 -2.71051e-14 6.52745e-15 0 0 0 0)
(0 3.73775e-15 0 -2.71051e-14 2.72608e-15 0 0 0 0)
(0 3.36533e-15 0 -5.42101e-14 3.52081e-15 0 0 0 0)
(2.71051e-14 -4.02679e-15 0 -2.71051e-14 6.30169e-16 0 0 0 0)
(0 5.58491e-15 0 -2.71051e-14 -6.43018e-16 0 0 0 0)
(-2.71051e-14 1.55005e-14 0 -2.71051e-14 1.14261e-14 0 0 0 0)
(0 3.43166e-16 0 -5.42101e-14 7.37372e-15 0 0 0 0)
(0 -1.61553e-14 0 0 7.13495e-15 0 0 0 0)
(-5.42101e-14 -2.55203e-15 0 -2.71051e-14 9.10082e-15 0 0 0 0)
(0 8.61363e-15 0 0 -3.73177e-15 0 0 0 0)
(2.52077e-12 -4.68663e-12 0 -1.30104e-12 -2.2853e-11 0 0 0 0)
(-3.30682e-12 5.63931e-12 0 4.33681e-13 4.92593e-12 0 0 0 0)
(8.13152e-13 -1.21375e-12 0 8.13152e-14 -1.1701e-12 0 0 0 0)
(-1.0842e-13 2.78051e-13 0 8.13152e-14 2.50849e-13 0 0 0 0)
(2.71051e-14 -5.65799e-14 0 8.13152e-14 -6.00053e-14 0 0 0 0)
(0 2.78524e-14 0 -2.71051e-14 1.55672e-14 0 0 0 0)
(-2.71051e-14 -2.38214e-15 0 2.71051e-14 5.82881e-15 0 0 0 0)
(0 -6.61427e-15 0 5.42101e-14 1.92901e-15 0 0 0 0)
(2.71051e-14 1.52485e-15 0 5.42101e-14 -1.26533e-15 0 0 0 0)
(0 4.76669e-15 0 -2.71051e-14 -5.54364e-16 0 0 0 0)
(-2.71051e-14 5.13914e-16 0 0 4.00345e-15 0 0 0 0)
(0 -9.99552e-16 0 0 1.63071e-15 0 0 0 0)
(2.71051e-14 -4.64935e-15 0 0 -3.06442e-15 0 0 0 0)
(0 -4.10461e-15 0 0 -3.93669e-15 0 0 0 0)
(0 1.91315e-14 0 -5.42101e-14 -2.79468e-15 0 0 0 0)
(-2.71051e-14 2.25766e-14 0 0 -1.07744e-15 0 0 0 0)
(0 -5.14598e-15 0 0 -7.0173e-15 0 0 0 0)
(8.13152e-14 -1.40196e-14 0 -2.71051e-14 -1.12725e-14 0 0 0 0)
(0 -9.33327e-15 0 0 4.57111e-15 0 0 0 0)
(0 1.04732e-14 0 2.71051e-14 -4.75224e-15 0 0 0 0)
(-9.75782e-13 -6.90106e-12 0 -1.89735e-12 1.47152e-11 0 0 0 0)
(1.51788e-12 8.30871e-12 0 4.06576e-13 -3.12751e-12 0 0 0 0)
(-4.06576e-13 -1.78188e-12 0 -1.35525e-13 7.67171e-13 0 0 0 0)
(2.71051e-14 4.22103e-13 0 -2.71051e-14 -1.31886e-13 0 0 0 0)
(-8.13152e-14 -8.30204e-14 0 -2.71051e-14 6.70167e-14 0 0 0 0)
(-2.71051e-14 3.16255e-14 0 0 7.71467e-15 0 0 0 0)
(2.71051e-14 -5.90262e-15 0 -2.71051e-14 7.53872e-15 0 0 0 0)
(0 -4.94071e-15 0 0 1.59994e-14 0 0 0 0)
(-2.71051e-14 1.28115e-15 0 0 1.90937e-14 0 0 0 0)
(0 4.09489e-15 0 0 1.31934e-14 0 0 0 0)
(0 2.05639e-16 0 0 1.02321e-14 0 0 0 0)
(0 -3.33012e-15 0 0 1.24739e-14 0 0 0 0)
(0 -2.20207e-15 0 0 1.45618e-14 0 0 0 0)
(0 -3.75705e-15 0 -2.71051e-14 1.93253e-14 0 0 0 0)
(-2.71051e-14 8.44415e-15 0 5.42101e-14 2.24234e-14 0 0 0 0)
(0 1.12779e-14 0 0 -8.25035e-15 0 0 0 0)
(2.71051e-14 -9.85187e-15 0 5.42101e-14 -1.1431e-14 0 0 0 0)
(-2.71051e-14 -4.56684e-15 0 0 6.7475e-15 0 0 0 0)
(0 3.9682e-15 0 0 7.15543e-15 0 0 0 0)
(-2.71051e-14 8.79476e-15 0 -2.71051e-14 1.21126e-14 0 0 0 0)
)
;

boundaryField
{
    movingWall
    {
        type            extrapolatedCalculated;
        value           nonuniform List<tensor> 
20
(
(-9.75782e-13 -6.90106e-12 0 6.03961e-12 3.50602e-11 0 0 0 0)
(1.51788e-12 8.30871e-12 0 -2.04281e-12 -7.45592e-12 0 0 0 0)
(-4.06576e-13 -1.78188e-12 0 -2.22045e-13 1.82531e-12 0 0 0 0)
(2.71051e-14 4.22103e-13 0 -3.55271e-13 -3.28418e-13 0 0 0 0)
(-8.13152e-14 -8.30204e-14 0 -2.66454e-13 1.369e-13 0 0 0 0)
(-2.71051e-14 3.16255e-14 0 -1.33227e-13 3.6635e-15 0 0 0 0)
(2.71051e-14 -5.90262e-15 0 -1.33227e-13 1.03981e-14 0 0 0 0)
(0 -4.94071e-15 0 -2.22045e-13 2.7274e-14 0 0 0 0)
(-2.71051e-14 1.28115e-15 0 -1.77636e-13 3.01609e-14 0 0 0 0)
(0 4.09489e-15 0 -8.88178e-14 2.21493e-14 0 0 0 0)
(0 2.05639e-16 0 -1.77636e-13 1.37814e-14 0 0 0 0)
(0 -3.33012e-15 0 -8.88178e-14 2.13268e-14 0 0 0 0)
(0 -2.20207e-15 0 -8.88178e-14 2.71019e-14 0 0 0 0)
(0 -3.75705e-15 0 -1.33227e-13 3.01351e-14 0 0 0 0)
(-2.71051e-14 8.44415e-15 0 -4.44089e-14 4.21301e-14 0 0 0 0)
(0 1.12779e-14 0 -4.44089e-14 -3.64151e-15 0 0 0 0)
(2.71051e-14 -9.85187e-15 0 -4.44089e-14 -2.9815e-15 0 0 0 0)
(-2.71051e-14 -4.56684e-15 0 -8.88178e-14 3.5766e-14 0 0 0 0)
(0 3.9682e-15 0 0 1.52859e-14 0 0 0 0)
(-2.71051e-14 8.79476e-15 0 -4.44089e-14 1.98932e-14 0 0 0 0)
)
;
    }
    fixedWalls
    {
        type            extrapolatedCalculated;
        value           nonuniform List<tensor> 
60
(
(-7.90479e-12 6.86374e-11 0 1.70762e-12 1.84336e-11 0 0 0 0)
(1.47438e-11 5.09704e-12 0 7.04731e-13 -3.32061e-11 0 0 0 0)
(-5.06262e-12 -6.41869e-11 0 -5.80048e-12 1.01392e-11 0 0 0 0)
(-8.43769e-12 4.5654e-11 0 4.06576e-12 1.61032e-11 0 0 0 0)
(1.11466e-11 2.25996e-13 0 2.98156e-13 -2.23686e-11 0 0 0 0)
(-7.19425e-12 -4.38204e-11 0 -2.57498e-12 1.41494e-11 0 0 0 0)
(7.99361e-13 5.68237e-11 0 2.19551e-12 4.70182e-12 0 0 0 0)
(1.59872e-12 -2.50131e-11 0 -1.0842e-12 -2.04834e-11 0 0 0 0)
(-3.55271e-12 -2.51099e-11 0 1.35525e-13 2.0978e-11 0 0 0 0)
(2.17604e-12 5.88988e-11 0 0 -9.9866e-12 0 0 0 0)
(-3.55271e-12 -6.50563e-11 0 5.42101e-13 -3.91028e-12 0 0 0 0)
(4.26326e-12 4.32577e-11 0 6.23416e-13 1.64861e-11 0 0 0 0)
(-9.76996e-13 8.88039e-13 0 -1.16552e-12 -2.32613e-11 0 0 0 0)
(-4.44089e-13 -4.97877e-11 0 -1.5992e-12 1.85096e-11 0 0 0 0)
(-7.37188e-12 7.49266e-11 0 2.71051e-12 1.14003e-12 0 0 0 0)
(1.03917e-11 -4.52276e-11 0 -9.75782e-13 -2.22916e-11 0 0 0 0)
(-1.13687e-11 -1.42399e-11 0 -2.84603e-12 2.53949e-11 0 0 0 0)
(-8.88178e-13 5.6352e-11 0 6.26127e-12 -2.39019e-12 0 0 0 0)
(1.37224e-11 -2.38006e-11 0 -1.30104e-12 -2.2853e-11 0 0 0 0)
(-6.03961e-12 -3.50602e-11 0 -1.89735e-12 1.47152e-11 0 0 0 0)
(0 6.18709e-15 0 0 -1.89788e-15 0 0 0 0)
(0 1.40442e-15 0 0 -4.27688e-15 0 0 0 0)
(0 2.32946e-14 0 2.71051e-14 -7.9456e-15 0 0 0 0)
(-8.88178e-14 3.31868e-14 0 2.71051e-14 5.88421e-15 0 0 0 0)
(-4.44089e-14 -2.42212e-16 0 -5.42101e-14 9.05975e-15 0 0 0 0)
(0 -3.05219e-15 0 0 3.56112e-15 0 0 0 0)
(-4.44089e-14 -1.44867e-14 0 2.71051e-14 3.63169e-15 0 0 0 0)
(0 -1.7579e-14 0 -2.71051e-14 -6.27028e-15 0 0 0 0)
(-4.44089e-14 1.05945e-14 0 2.71051e-14 -5.40502e-15 0 0 0 0)
(-4.44089e-14 4.04113e-15 0 0 3.77434e-15 0 0 0 0)
(-4.44089e-14 -4.50289e-15 0 0 1.66171e-16 0 0 0 0)
(-4.44089e-14 3.37645e-15 0 0 -5.1659e-15 0 0 0 0)
(-8.88178e-14 1.61607e-14 0 0 -5.91587e-16 0 0 0 0)
(-4.44089e-14 5.7428e-15 0 0 6.93776e-15 0 0 0 0)
(0 -1.15903e-14 0 -2.71051e-14 -3.52479e-15 0 0 0 0)
(0 1.98419e-14 0 2.71051e-14 -6.30509e-15 0 0 0 0)
(-4.44089e-14 1.363e-14 0 -2.71051e-14 4.73944e-15 0 0 0 0)
(8.88178e-14 8.84194e-16 0 0 -3.73177e-15 0 0 0 0)
(0 2.85571e-14 0 2.71051e-14 -4.75224e-15 0 0 0 0)
(-4.44089e-14 1.98932e-14 0 -2.71051e-14 1.21126e-14 0 0 0 0)
(-1.32815e-12 1.34238e-11 0 -7.90479e-12 6.86374e-11 0 0 0 0)
(2.03288e-12 -1.62741e-11 0 2.62013e-12 -1.4942e-11 0 0 0 0)
(-5.42101e-13 3.54162e-12 0 1.77636e-13 3.54099e-12 0 0 0 0)
(2.71051e-14 -8.45975e-13 0 3.9968e-13 -7.75547e-13 0 0 0 0)
(0 1.91597e-13 0 3.55271e-13 1.57091e-13 0 0 0 0)
(0 -2.73013e-14 0 3.55271e-13 -9.15825e-15 0 0 0 0)
(-5.42101e-14 8.69435e-15 0 3.10862e-13 4.78855e-14 0 0 0 0)
(-2.71051e-14 -2.90158e-15 0 2.22045e-13 2.56192e-14 0 0 0 0)
(0 4.07703e-15 0 2.22045e-13 3.62792e-14 0 0 0 0)
(-5.42101e-14 -5.44894e-15 0 1.77636e-13 4.19273e-14 0 0 0 0)
(0 -6.35748e-15 0 4.44089e-14 1.44834e-14 0 0 0 0)
(0 7.48476e-15 0 1.77636e-13 1.64973e-14 0 0 0 0)
(-2.71051e-14 4.18715e-15 0 8.88178e-14 4.44224e-14 0 0 0 0)
(0 -5.08621e-15 0 0 3.3246e-14 0 0 0 0)
(0 -9.23835e-17 0 4.44089e-14 2.40776e-14 0 0 0 0)
(-2.71051e-14 -1.95798e-15 0 0 3.28764e-14 0 0 0 0)
(-5.42101e-14 -8.64147e-15 0 -8.88178e-14 1.62457e-14 0 0 0 0)
(5.42101e-14 -3.22711e-17 0 0 -1.68943e-15 0 0 0 0)
(0 -1.12441e-15 0 0 1.61166e-14 0 0 0 0)
(0 -2.48238e-15 0 0 -6.18709e-15 0 0 0 0)
)
;
    }
    frontAndBack
    {
        type            empty;
    }
}


// ************************************************************************* //
