/*--------------------------------*- C++ -*----------------------------------*\
| =========                 |                                                 |
| \\      /  F ield         | OpenFOAM: The Open Source CFD Toolbox           |
|  \\    /   O peration     | Version:  2506                                  |
|   \\  /    A nd           | Website:  www.openfoam.com                      |
|    \\/     M anipulation  |                                                 |
\*---------------------------------------------------------------------------*/
FoamFile
{
    version     2.0;
    format      ascii;
    arch        "LSB;label=32;scalar=64";
    class       volScalarField;
    location    "9.375";
    object      Lambda2Field;
}
// * * * * * * * * * * * * * * * * * * * * * * * * * * * * * * * * * * * * * //

dimensions      [0 0 -2 0 0 0 0];

internalField   nonuniform List<scalar> 
400
(
2.46868e-23
1.03081e-23
5.81861e-25
-4.51489e-27
1.03865e-26
-1.48001e-27
1.08821e-27
2.57343e-28
1.10508e-28
8.40119e-29
0
2.02875e-28
5.28274e-28
0
5.00812e-30
4.02569e-28
5.59763e-28
1.43948e-28
0
0
7.91998e-24
1.36179e-23
8.16217e-25
1.32354e-26
1.6599e-27
-1.03231e-27
-8.39013e-28
0
5.37927e-28
4.16018e-28
0
1.29478e-29
0
0
0
1.32429e-29
-5.30978e-28
2.79883e-28
6.27306e-28
0
7.36719e-23
2.57782e-23
2.13681e-25
8.61931e-26
-1.88859e-26
2.09501e-27
-6.87606e-29
0
-4.49335e-29
1.23549e-29
3.30958e-29
2.61785e-28
0
2.08795e-29
0
0
0
-8.64035e-28
3.07057e-28
7.27516e-28
3.86066e-23
1.49156e-23
6.18814e-25
0
7.01107e-27
-1.45802e-27
0
3.16789e-28
3.45934e-28
1.45058e-27
-1.84682e-28
2.98174e-28
0
1.16674e-27
4.12594e-28
-1.09176e-28
0
2.13939e-28
0
4.69855e-28
4.4805e-24
7.35726e-24
4.58694e-25
2.70133e-27
0
-9.2861e-28
1.48432e-28
0
-1.40129e-28
3.45885e-28
1.59584e-30
7.1624e-29
-1.37372e-27
1.06701e-28
-4.68384e-28
-9.8694e-29
0
-9.73181e-29
0
1.29032e-28
2.39457e-23
1.06222e-23
2.49569e-25
-7.96781e-27
2.27021e-27
1.89317e-27
-3.7507e-28
0
0
9.16705e-29
5.31974e-30
-1.8913e-28
7.56933e-29
1.00316e-29
8.48787e-29
2.60451e-28
7.02772e-29
0
0
0
2.45198e-23
9.8839e-24
-1.01168e-25
2.09026e-26
-8.06576e-27
4.42267e-28
0
5.55792e-33
3.36125e-29
6.62991e-29
0
-1.84816e-27
0
0
4.01858e-28
0
1.97094e-31
0
2.87798e-29
0
5.36162e-24
2.22568e-24
1.74288e-25
7.34684e-28
1.68383e-27
0
0
0
4.69561e-28
1.96008e-27
1.35779e-27
6.81774e-30
9.24328e-28
0
6.41812e-29
-5.30682e-28
4.19005e-28
2.99457e-28
0
6.60534e-29
0
1.38576e-24
0
7.92259e-27
-3.84662e-27
6.21576e-28
7.53173e-28
0
-2.73534e-27
-1.86745e-27
9.4662e-28
6.12481e-28
2.24769e-28
5.90217e-29
0
-1.39421e-28
1.78589e-28
4.4419e-28
0
1.27774e-28
8.88968e-26
4.11342e-24
0
-4.30465e-26
0
-2.1401e-27
0
1.54128e-27
5.83345e-28
0
-1.39625e-28
-8.24425e-29
0
2.34935e-31
-1.09846e-28
0
-2.86431e-28
0
1.42001e-29
1.42456e-29
0
2.75625e-24
-4.1088e-25
-5.15832e-26
-1.01727e-26
6.09336e-28
-2.57037e-27
0
7.19503e-30
1.15438e-28
0
1.50437e-28
0
8.86223e-29
-1.20101e-28
-4.41112e-29
8.41037e-29
6.81859e-29
1.11149e-28
0
6.13004e-24
3.58176e-24
0
1.83671e-26
0
2.31992e-27
-2.9905e-28
0
1.08954e-27
3.60385e-28
-1.01235e-27
-4.39636e-27
-1.92715e-28
3.30551e-28
7.52753e-28
4.73778e-28
5.52005e-29
0
-6.69701e-29
2.66866e-29
0
0
3.68719e-26
5.57736e-27
2.13266e-27
-2.90081e-28
-2.26327e-27
0
1.40074e-28
0
2.74977e-28
0
8.53063e-28
1.98589e-29
0
3.08114e-28
0
0
3.67627e-28
0
1.55064e-23
4.52964e-24
1.43837e-25
2.93874e-27
-3.30823e-27
1.13629e-27
0
2.00997e-28
3.92603e-28
0
-4.61354e-28
-1.40641e-27
5.07814e-28
3.82791e-28
0
0
-2.31226e-28
0
9.75827e-30
4.81325e-29
4.10494e-23
1.6488e-23
-3.58175e-25
1.99831e-27
-9.74644e-27
5.05545e-27
2.45211e-28
9.52005e-30
-2.54424e-28
-1.63865e-28
0
-9.80939e-29
-1.64414e-27
0
4.10131e-28
5.84139e-30
2.62907e-29
0
-1.25709e-28
9.68256e-29
1.22567e-23
1.24406e-23
2.01122e-26
6.61216e-27
-7.58172e-27
1.14754e-27
-5.47061e-28
5.23427e-29
-2.91272e-28
0
0
0
0
0
1.34525e-28
0
0
-2.40842e-28
0
6.26887e-29
1.20357e-23
1.04472e-23
6.56188e-25
2.12161e-26
0
-2.76577e-28
-8.65738e-28
3.31394e-29
1.91046e-28
1.3122e-28
3.18335e-28
1.74284e-28
-6.37794e-29
8.49177e-29
6.77806e-28
4.43591e-28
0
0
1.63452e-28
0
6.9073e-23
2.32476e-23
3.14417e-25
9.33843e-26
-1.16253e-26
9.27226e-28
-3.36118e-28
0
0
3.18183e-29
5.36528e-29
-9.38803e-29
-1.70039e-28
1.09543e-28
-1.50966e-28
0
0
0
1.51998e-28
0
1.24518e-23
1.33807e-23
5.62519e-25
3.43647e-26
-1.00017e-27
-5.12603e-28
0
-3.54839e-28
8.42631e-29
-1.28894e-28
1.60277e-29
0
9.39064e-30
0
-1.02931e-27
1.16088e-30
0
5.07071e-28
0
2.83878e-28
1.40459e-23
5.68209e-24
4.06793e-25
0
6.7415e-27
5.95162e-29
2.16823e-28
0
3.64569e-28
0
0
0
0
1.01835e-28
9.60569e-28
0
0
4.55288e-29
0
0
)
;

boundaryField
{
    movingWall
    {
        type            calculated;
        value           nonuniform List<scalar> 
20
(
0
0
5.6096e-25
-4.21027e-26
2.87332e-26
-3.47868e-27
8.94507e-28
1.09706e-27
5.07105e-28
0
0
2.95774e-28
1.95583e-28
5.0054e-28
3.59688e-28
-4.87578e-28
4.464e-28
1.1403e-27
0
5.17232e-30
)
;
    }
    fixedWalls
    {
        type            calculated;
        value           nonuniform List<scalar> 
60
(
1.79692e-22
2.20971e-22
3.97945e-22
2.56813e-22
1.24315e-22
1.64594e-22
1.25396e-22
2.96752e-23
9.21875e-24
4.73514e-24
-1.99768e-23
4.51429e-23
0
7.98176e-23
2.04389e-22
1.52119e-22
1.69774e-22
3.53624e-22
2.19269e-22
1.02998e-22
0
0
6.31402e-28
9.34154e-28
9.52094e-29
0
0
4.76479e-28
3.16378e-28
1.42456e-29
2.76128e-32
2.66866e-29
3.49975e-31
4.81325e-29
3.14156e-28
5.37817e-28
0
1.39261e-29
7.74042e-28
0
0
0
9.22991e-25
0
6.8069e-26
-9.61551e-27
4.99577e-27
1.20611e-29
9.05283e-28
7.8997e-28
-7.256e-29
1.32956e-27
1.10658e-27
0
0
7.34684e-28
1.03144e-27
2.85419e-30
0
0
)
;
    }
    frontAndBack
    {
        type            empty;
    }
}


// ************************************************************************* //
