/*--------------------------------*- C++ -*----------------------------------*\
| =========                 |                                                 |
| \\      /  F ield         | OpenFOAM: The Open Source CFD Toolbox           |
|  \\    /   O peration     | Version:  2506                                  |
|   \\  /    A nd           | Website:  www.openfoam.com                      |
|    \\/     M anipulation  |                                                 |
\*---------------------------------------------------------------------------*/
FoamFile
{
    version     2.0;
    format      ascii;
    arch        "LSB;label=32;scalar=64";
    class       volVectorField;
    location    "9.375";
    object      LambVectorField;
}
// * * * * * * * * * * * * * * * * * * * * * * * * * * * * * * * * * * * * * //

dimensions      [0 1 -2 0 0 0 0];

internalField   nonuniform List<vector> 
400
(
(-2.01043e-24 -1.17162e-11 0)
(-5.93745e-25 1.58946e-11 -0)
(-3.06323e-26 -3.4603e-12 0)
(-1.74534e-27 9.00185e-13 -0)
(-5.39556e-29 -1.37387e-13 0)
(-1.86625e-30 8.15114e-14 -0)
(5.44886e-30 4.55158e-14 0)
(3.65788e-30 5.71117e-14 0)
(2.08859e-30 2.3028e-14 0)
(6.25335e-30 5.96591e-14 0)
(1.21163e-30 3.34625e-14 0)
(8.09207e-31 1.96203e-14 0)
(-4.65009e-31 -4.18715e-15 0)
(4.2274e-31 5.08621e-15 0)
(-3.25756e-30 -5.41177e-14 0)
(1.60928e-31 1.95798e-15 0)
(-1.85074e-30 -4.55686e-14 0)
(2.28825e-31 -5.41778e-14 -0)
(4.53044e-32 1.12441e-15 0)
(-3.83968e-32 2.48238e-15 -0)
(-4.02674e-27 -3.16006e-13 0)
(-2.17082e-27 8.56264e-13 -0)
(-2.49128e-28 -3.79598e-13 0)
(4.47246e-30 -4.73318e-14 -0)
(-5.4589e-30 -1.20215e-13 0)
(-3.37477e-30 -1.4385e-13 0)
(-1.89306e-29 -1.47137e-13 0)
(-1.51369e-29 -1.08447e-13 0)
(-1.33389e-29 -1.03459e-13 0)
(-4.79993e-30 -5.33541e-14 0)
(-1.01647e-29 -8.44457e-14 0)
(-9.84182e-30 -8.11568e-14 0)
(1.12029e-30 9.43113e-15 0)
(1.00334e-30 3.72187e-14 0)
(-1.61477e-31 -9.14922e-15 0)
(-4.41721e-31 -3.72917e-15 0)
(4.26108e-30 7.75574e-14 0)
(-1.7178e-30 1.49343e-14 -0)
(1.0527e-30 -1.11512e-14 -0)
(3.43778e-32 -9.79133e-15 -0)
(-1.08381e-24 6.7541e-12 -0)
(-4.76008e-25 -1.36308e-11 0)
(-2.67518e-26 3.27556e-12 -0)
(-1.28807e-27 -6.79795e-13 0)
(-8.27396e-29 2.90394e-13 -0)
(4.16927e-30 5.55511e-14 0)
(-9.21168e-31 3.37663e-14 -0)
(-2.12639e-32 -2.51932e-15 0)
(-1.89757e-31 9.09028e-14 -0)
(4.7255e-30 -5.40454e-14 -0)
(4.9057e-32 -1.31351e-14 -0)
(-6.44026e-31 -1.46652e-14 0)
(-9.8891e-30 -6.91948e-14 0)
(-5.10267e-30 -2.63347e-14 0)
(1.29956e-29 9.61113e-14 0)
(8.21436e-31 1.79352e-14 0)
(-9.59217e-31 2.17321e-14 -0)
(-1.21459e-29 7.08132e-14 -0)
(-3.31577e-30 1.57766e-14 -0)
(-1.54016e-32 2.64466e-16 -0)
(-5.50349e-25 -4.82192e-12 0)
(-2.48692e-25 9.84596e-12 -0)
(-1.33861e-26 -2.26211e-12 0)
(-7.50246e-28 5.85268e-13 -0)
(-2.52326e-29 -7.51214e-14 0)
(9.77397e-31 8.55065e-14 0)
(2.64077e-30 1.1518e-13 0)
(-3.10541e-30 5.52865e-14 -0)
(1.74453e-31 1.43423e-14 0)
(3.5116e-30 4.91424e-14 0)
(4.11033e-30 6.54087e-14 0)
(6.65035e-31 -1.64091e-14 -0)
(8.71278e-32 -1.97482e-15 -0)
(1.23394e-30 -5.93803e-14 -0)
(-2.13991e-31 -2.82211e-14 0)
(-2.99895e-31 3.11737e-14 -0)
(-1.50242e-31 4.53855e-15 -0)
(-2.44782e-31 4.45014e-15 -0)
(-2.32048e-30 2.99012e-14 -0)
(-9.16608e-31 1.10479e-14 -0)
(1.4822e-28 2.62341e-13 0)
(2.78902e-29 -1.34835e-13 -0)
(-7.18578e-31 -4.49567e-14 0)
(1.65988e-30 -5.85896e-14 -0)
(-6.40219e-30 -1.07099e-13 0)
(-2.85892e-29 -1.24568e-13 0)
(-1.13886e-29 -5.1472e-14 0)
(-1.1737e-29 -5.80678e-14 0)
(-8.42899e-30 -3.24397e-14 0)
(-1.23662e-29 -4.84054e-14 0)
(3.68907e-30 1.82819e-14 0)
(2.13478e-30 2.93832e-14 0)
(-9.87111e-30 1.07244e-13 -0)
(-9.80362e-30 5.25283e-14 -0)
(5.7474e-30 -7.64028e-14 -0)
(-1.15652e-30 -3.277e-14 0)
(-1.12466e-31 6.05461e-15 -0)
(1.43629e-30 -5.68732e-14 -0)
(-4.57536e-31 -5.67961e-14 0)
(-3.23013e-32 -5.3344e-14 0)
(-6.55367e-25 5.9823e-12 -0)
(-2.31884e-25 -9.67063e-12 0)
(-1.23871e-26 2.24148e-12 -0)
(-7.65037e-28 -5.91991e-13 0)
(-1.47622e-29 9.94147e-14 -0)
(6.19591e-30 2.07802e-14 0)
(7.68705e-30 4.13708e-14 0)
(1.08018e-29 6.94612e-14 0)
(2.27097e-30 6.82017e-14 0)
(8.18878e-31 5.25191e-14 0)
(-1.43145e-31 -2.85104e-15 0)
(4.08724e-30 9.26761e-14 0)
(-6.612e-31 1.04289e-14 -0)
(-1.13611e-31 1.88766e-15 -0)
(-1.93339e-31 2.34984e-15 -0)
(-1.88049e-30 2.24712e-14 -0)
(3.4958e-31 -9.72713e-15 -0)
(-9.51174e-32 -7.00075e-15 0)
(2.02923e-32 5.95627e-16 0)
(3.18185e-32 4.16993e-15 0)
(-1.2708e-24 -8.94554e-12 0)
(-3.91008e-25 1.27577e-11 -0)
(-2.12813e-26 -2.9707e-12 0)
(-9.43199e-28 6.35643e-13 -0)
(-1.16124e-28 -2.1655e-13 0)
(4.87084e-30 3.49048e-14 0)
(-1.57158e-29 -8.39534e-14 0)
(1.81688e-30 1.09498e-14 0)
(-4.40841e-30 -5.67372e-14 0)
(-1.93159e-30 -1.01025e-14 0)
(2.87862e-30 1.61065e-14 0)
(2.71163e-30 8.9987e-14 0)
(-8.16709e-30 4.56146e-14 -0)
(1.81163e-31 -1.16908e-15 -0)
(-7.83172e-30 4.67971e-14 -0)
(4.07123e-30 -5.03661e-14 -0)
(-9.64948e-31 -1.47871e-14 0)
(1.90199e-31 2.83718e-15 0)
(1.13682e-31 3.08212e-15 0)
(1.2464e-30 3.44152e-14 0)
(-2.41271e-25 3.85831e-12 -0)
(-7.35864e-26 -5.614e-12 0)
(-3.63804e-27 1.15854e-12 -0)
(-2.15844e-28 -3.04396e-13 0)
(-3.36963e-30 3.50174e-14 -0)
(-8.8795e-30 -1.0106e-13 0)
(-3.42093e-30 -3.37949e-14 0)
(-1.35547e-29 -8.75839e-14 0)
(-1.23821e-29 -7.55406e-14 0)
(-4.30337e-30 -4.43572e-14 0)
(-3.82327e-30 -5.84744e-14 0)
(-7.6722e-30 -5.4935e-14 0)
(-7.42499e-31 -1.02226e-14 0)
(-5.03808e-31 1.72746e-14 -0)
(-4.90042e-31 4.89489e-15 -0)
(6.88778e-30 -8.81765e-14 -0)
(3.34701e-32 -1.06257e-15 -0)
(-3.57807e-30 5.3018e-14 -0)
(2.18168e-31 -1.11435e-14 -0)
(-1.0841e-30 -2.46681e-14 0)
(-3.17327e-25 5.05501e-12 -0)
(-8.00222e-26 -5.89267e-12 0)
(-4.28843e-27 1.41301e-12 -0)
(-2.1351e-28 -2.65187e-13 0)
(-1.76722e-29 1.57727e-13 -0)
(1.71139e-31 4.17294e-15 0)
(8.45021e-30 7.20528e-14 0)
(4.92069e-30 3.68217e-14 0)
(2.82413e-30 1.40426e-13 0)
(-2.46856e-29 1.32421e-13 -0)
(-8.6519e-30 3.93458e-14 -0)
(9.70395e-31 -2.56887e-14 -0)
(1.03978e-30 2.81069e-14 0)
(-5.93762e-31 1.24235e-14 -0)
(-3.10836e-30 3.56294e-14 -0)
(-4.3004e-30 3.23249e-14 -0)
(-3.12649e-30 2.24218e-14 -0)
(-1.31259e-30 1.52265e-14 -0)
(1.23343e-31 -5.97184e-15 -0)
(-5.93053e-31 2.2391e-14 -0)
(-1.69853e-24 -1.15352e-11 0)
(-4.3726e-25 1.37095e-11 -0)
(-2.31521e-26 -3.11099e-12 0)
(-1.25682e-27 7.86489e-13 -0)
(-5.80371e-29 -1.48709e-13 0)
(-1.04071e-29 9.38199e-14 -0)
(5.07205e-32 -8.70787e-15 -0)
(-2.5781e-30 1.08107e-13 -0)
(-5.21024e-32 1.93745e-14 -0)
(2.7048e-31 5.05971e-15 0)
(-3.74807e-30 7.03383e-14 -0)
(-3.27626e-30 3.03852e-14 -0)
(1.57864e-32 -1.83375e-16 -0)
(5.41613e-31 -5.11003e-15 -0)
(1.09614e-30 -3.13292e-14 -0)
(-3.89177e-30 6.1048e-14 -0)
(3.90588e-30 -3.77866e-14 -0)
(-1.77406e-30 -4.11942e-14 0)
(1.99515e-31 5.31685e-15 0)
(-2.77043e-32 2.74223e-15 -0)
(-2.16332e-24 1.33012e-11 -0)
(-5.37068e-25 -1.53231e-11 0)
(-2.77103e-26 3.4404e-12 -0)
(-1.72111e-27 -8.60237e-13 0)
(-6.56305e-29 2.47509e-13 -0)
(2.91105e-30 4.29698e-14 0)
(-1.7346e-29 1.1355e-13 -0)
(-5.21145e-31 2.0469e-15 -0)
(3.22439e-30 -1.86134e-14 -0)
(2.82059e-30 -4.11954e-14 -0)
(1.81431e-31 -5.61237e-15 -0)
(-2.66095e-31 2.15549e-14 -0)
(7.21524e-31 3.11346e-14 0)
(-3.32138e-30 6.30956e-14 -0)
(-2.34463e-30 3.56974e-14 -0)
(-4.53417e-30 3.27227e-14 -0)
(1.32597e-30 -1.08814e-14 -0)
(4.13181e-31 -1.38886e-14 -0)
(3.91741e-31 2.30044e-14 0)
(3.18425e-32 2.82862e-15 0)
(-8.48634e-25 -7.84724e-12 0)
(-2.3418e-25 9.99157e-12 -0)
(-1.24027e-26 -2.24764e-12 0)
(-6.53534e-28 5.30277e-13 -0)
(-4.63153e-29 -2.151e-13 0)
(4.13579e-30 -2.49676e-14 -0)
(4.69452e-30 -6.08846e-14 -0)
(1.11936e-29 -1.13179e-13 -0)
(2.99126e-30 -1.01355e-13 -0)
(2.34145e-30 -1.38092e-14 -0)
(1.18674e-29 -7.30429e-14 -0)
(-3.15991e-30 -1.68343e-13 0)
(-1.53638e-29 -9.27202e-14 0)
(-2.34516e-30 -1.76566e-14 0)
(-5.13171e-30 -7.20579e-14 0)
(-7.57375e-31 -1.88175e-14 0)
(-9.29871e-32 7.97574e-15 -0)
(2.39337e-30 -6.05779e-14 -0)
(-1.57158e-30 -3.02118e-14 0)
(-3.67844e-32 4.35776e-15 -0)
(-3.07252e-27 -1.38396e-12 0)
(-2.17544e-29 6.09284e-13 -0)
(5.50793e-30 -7.05867e-14 -0)
(-1.04809e-29 7.32986e-14 -0)
(-2.7396e-30 1.01876e-14 -0)
(1.80585e-29 -7.37488e-14 -0)
(8.02785e-30 -1.09179e-13 -0)
(-1.18613e-30 -3.51205e-14 0)
(5.90026e-32 8.90518e-15 0)
(-3.77215e-31 6.82388e-15 -0)
(-1.76362e-31 2.86241e-15 -0)
(1.71211e-31 -2.04059e-15 -0)
(4.8438e-31 -1.17547e-14 -0)
(-1.00041e-30 -2.9735e-14 0)
(-2.14141e-32 1.43647e-15 -0)
(-9.82194e-31 -5.09448e-14 0)
(-4.45495e-31 9.36699e-15 -0)
(1.71606e-31 -2.30683e-15 -0)
(8.32439e-32 -3.39886e-15 -0)
(2.62182e-31 -6.48935e-15 -0)
(-1.00642e-24 8.08568e-12 -0)
(-3.16596e-25 -1.14624e-11 0)
(-1.55439e-26 2.56904e-12 -0)
(-9.6287e-28 -5.804e-13 0)
(-5.1501e-29 2.0894e-13 -0)
(3.98672e-30 3.56969e-14 0)
(-4.59055e-30 7.48185e-14 -0)
(-3.37541e-30 3.5756e-14 -0)
(-7.52416e-30 5.08851e-14 -0)
(9.24719e-31 -1.51218e-14 -0)
(2.11542e-31 6.30949e-14 0)
(-1.82088e-29 1.21393e-13 -0)
(-1.05773e-30 8.37004e-15 -0)
(4.8491e-31 1.29826e-14 0)
(1.37358e-30 9.24755e-14 0)
(-4.91661e-30 6.62151e-14 -0)
(-3.77416e-30 3.58774e-14 -0)
(-9.33987e-30 5.76622e-14 -0)
(2.06249e-30 -1.47619e-14 -0)
(2.21204e-31 -1.54074e-14 -0)
(-2.23928e-24 -1.19545e-11 0)
(-6.85375e-25 1.68538e-11 -0)
(-3.78785e-26 -3.96088e-12 0)
(-1.95284e-27 9.11935e-13 -0)
(-1.2537e-28 -2.8249e-13 0)
(2.77586e-30 -2.14062e-14 -0)
(7.71573e-30 -4.96868e-14 -0)
(2.83165e-31 -1.61893e-15 -0)
(8.20568e-30 -5.8992e-14 -0)
(1.07466e-29 -8.45589e-14 -0)
(1.19986e-29 -1.12494e-13 -0)
(7.90647e-30 -9.15565e-14 -0)
(4.31218e-31 -1.01535e-13 -0)
(-4.5982e-30 -3.96921e-14 0)
(-1.4563e-30 -1.19739e-14 0)
(-6.9076e-31 1.94774e-14 -0)
(1.91181e-30 -2.61351e-14 -0)
(3.60851e-31 -7.98975e-15 -0)
(-4.15748e-31 -6.16241e-14 0)
(-6.81883e-31 -2.35328e-14 0)
(-8.92771e-25 7.89582e-12 -0)
(-2.47803e-25 -1.01755e-11 0)
(-1.4754e-26 2.50383e-12 -0)
(-6.80692e-28 -5.61649e-13 0)
(-5.65683e-29 2.04905e-13 -0)
(-1.60911e-30 6.72029e-14 -0)
(-8.68273e-30 6.43413e-14 -0)
(-6.67735e-30 5.33097e-14 -0)
(-1.06926e-29 8.48998e-14 -0)
(-1.40272e-29 8.70706e-14 -0)
(1.06786e-30 -5.81943e-15 -0)
(6.17362e-31 -5.99919e-15 -0)
(-6.98498e-30 5.65556e-14 -0)
(1.12113e-30 -8.87231e-15 -0)
(2.15093e-30 -6.18381e-14 -0)
(8.41363e-32 -1.67993e-15 -0)
(1.15923e-30 -6.44587e-14 -0)
(-3.07375e-30 -5.86562e-14 0)
(1.70539e-30 6.44109e-14 0)
(-1.22982e-30 2.47922e-14 -0)
(1.09243e-27 -3.06865e-14 -0)
(-1.92786e-26 -2.58903e-12 0)
(-1.20672e-27 6.52647e-13 -0)
(-3.71192e-29 -9.8282e-14 0)
(-3.59249e-30 6.77996e-14 -0)
(-1.84292e-30 6.29736e-14 -0)
(-9.93541e-30 7.06537e-14 -0)
(-1.03821e-29 5.35988e-14 -0)
(-2.69779e-30 2.00567e-14 -0)
(-6.66278e-30 5.40735e-14 -0)
(-1.04998e-29 7.88617e-14 -0)
(-7.82633e-30 7.93081e-14 -0)
(-6.41833e-30 5.67635e-14 -0)
(-6.72646e-30 5.41509e-14 -0)
(-8.20868e-30 7.29796e-14 -0)
(-5.12615e-31 1.25452e-14 -0)
(1.82372e-30 5.50649e-14 0)
(-4.79578e-30 9.70619e-14 -0)
(-3.17977e-30 2.55716e-14 -0)
(1.46343e-30 -4.29473e-14 -0)
(-6.71261e-25 -4.76477e-12 0)
(-3.56396e-25 1.16395e-11 -0)
(-1.9877e-26 -2.78479e-12 0)
(-9.32252e-28 5.52465e-13 -0)
(-6.02166e-29 -2.33576e-13 0)
(-1.17088e-30 7.10354e-15 -0)
(5.22099e-30 -6.19457e-14 -0)
(9.67243e-30 -1.10574e-13 -0)
(7.03949e-30 -1.12185e-13 -0)
(1.29214e-30 -2.59312e-14 -0)
(1.87156e-30 -2.51256e-14 -0)
(2.1474e-30 -3.08428e-14 -0)
(2.13665e-30 -5.75754e-14 -0)
(8.30145e-31 -2.30783e-14 -0)
(2.5295e-30 -3.269e-14 -0)
(-8.46922e-31 -4.26056e-14 0)
(-4.23479e-30 -5.45533e-14 0)
(3.76577e-31 1.61553e-14 0)
(2.06063e-30 -2.4553e-14 -0)
(1.90403e-32 -8.61363e-15 -0)
(-2.01448e-25 3.38559e-12 -0)
(-6.57747e-26 -5.20563e-12 0)
(-4.02561e-27 1.29506e-12 -0)
(-9.79376e-29 -1.96736e-13 0)
(-4.5218e-29 1.37895e-13 -0)
(3.73645e-30 -5.49575e-14 -0)
(-1.45643e-30 2.94872e-14 -0)
(-5.58425e-30 6.08244e-14 -0)
(-6.08697e-30 5.26853e-14 -0)
(2.44013e-30 -3.18717e-14 -0)
(3.48781e-32 -5.13914e-16 -0)
(-7.13898e-32 9.99552e-16 -0)
(-3.62013e-31 4.64935e-15 -0)
(-4.83996e-31 4.10461e-15 -0)
(8.721e-30 -7.33416e-14 -0)
(-1.65712e-30 -2.25766e-14 0)
(5.49882e-31 5.14598e-15 0)
(-2.87094e-31 -1.30854e-14 0)
(-3.11168e-31 9.33327e-15 -0)
(-1.18739e-30 1.66318e-14 -0)
(-4.38577e-25 5.00371e-12 -0)
(-1.47294e-25 -7.90214e-12 0)
(-7.51277e-27 1.64635e-12 -0)
(-3.68821e-28 -4.49208e-13 0)
(-1.91371e-29 5.59154e-14 -0)
(2.8965e-31 -3.16255e-14 -0)
(5.51164e-31 -2.12024e-14 -0)
(-3.36882e-31 4.94071e-15 -0)
(9.6602e-32 -1.28115e-15 -0)
(2.26748e-31 -4.09489e-15 -0)
(7.08496e-33 -2.05639e-16 -0)
(-1.77552e-31 3.33012e-15 -0)
(-1.49201e-31 2.20207e-15 -0)
(1.75898e-30 -2.3348e-14 -0)
(-4.82031e-30 4.5766e-14 -0)
(-1.02671e-31 -1.12779e-14 0)
(4.77502e-31 6.4062e-14 0)
(-4.08344e-31 4.56684e-15 -0)
(1.51644e-31 -3.9682e-15 -0)
(1.7854e-30 -3.58998e-14 -0)
)
;

boundaryField
{
    movingWall
    {
        type            calculated;
        value           nonuniform List<vector> 
20
(
(0 1.29407e-11 -0)
(0 -1.03515e-11 -0)
(0 1.55983e-12 -0)
(0 -7.77375e-13 -0)
(0 -1.83433e-13 -0)
(0 -1.64852e-13 -0)
(0 -1.27324e-13 -0)
(0 -2.17104e-13 -0)
(0 -1.78917e-13 -0)
(0 -9.29127e-14 -0)
(0 -1.77841e-13 -0)
(0 -8.54877e-14 -0)
(0 -8.66158e-14 -0)
(0 -1.2947e-13 -0)
(0 -5.28531e-14 -0)
(0 -5.56868e-14 -0)
(0 -3.4557e-14 -0)
(0 -8.4251e-14 -0)
(0 -3.9682e-15 -0)
(0 -5.32037e-14 -0)
)
;
    }
    fixedWalls
    {
        type            calculated;
        value           nonuniform List<vector> 
60
(
(0 -6.69298e-11 -0)
(0 -4.39231e-12 -0)
(0 5.83864e-11 -0)
(0 -4.15882e-11 -0)
(0 7.21593e-14 -0)
(0 4.12454e-11 -0)
(0 -5.46282e-11 -0)
(0 2.39289e-11 -0)
(0 2.52454e-11 -0)
(0 -5.88988e-11 -0)
(0 6.55984e-11 -0)
(0 -4.26343e-11 -0)
(0 -2.05356e-12 -0)
(0 4.81885e-11 -0)
(0 -7.22161e-11 -0)
(0 4.42518e-11 -0)
(0 1.13938e-11 -0)
(0 -5.00907e-11 -0)
(0 2.24996e-11 -0)
(0 3.31628e-11 -0)
(0 -6.18709e-15 -0)
(0 -1.40442e-15 -0)
(0 3.81043e-15 -0)
(0 -6.08176e-15 -0)
(0 -5.39679e-14 -0)
(0 3.05219e-15 -0)
(0 4.15917e-14 -0)
(0 -9.52609e-15 -0)
(0 1.65106e-14 -0)
(0 -4.04113e-15 -0)
(0 4.50289e-15 -0)
(0 -3.37645e-15 -0)
(0 -1.61607e-14 -0)
(0 -5.7428e-15 -0)
(0 -1.55147e-14 -0)
(0 7.26311e-15 -0)
(0 -4.07351e-14 -0)
(0 -8.84194e-16 -0)
(0 -1.45205e-15 -0)
(0 -4.69982e-14 -0)
(0 -2.13286e-11 -0)
(0 1.88942e-11 -0)
(0 -3.36398e-12 -0)
(0 1.24566e-12 -0)
(0 1.63674e-13 -0)
(0 3.82573e-13 -0)
(0 3.02168e-13 -0)
(0 2.24946e-13 -0)
(0 2.17968e-13 -0)
(0 1.83085e-13 -0)
(0 5.07664e-14 -0)
(0 1.70151e-13 -0)
(0 8.46307e-14 -0)
(0 5.08621e-15 -0)
(0 4.45013e-14 -0)
(0 1.95798e-15 -0)
(0 -8.01764e-14 -0)
(0 3.22711e-17 -0)
(0 1.12441e-15 -0)
(0 2.48238e-15 -0)
)
;
    }
    frontAndBack
    {
        type            empty;
    }
}


// ************************************************************************* //
