/*--------------------------------*- C++ -*----------------------------------*\
| =========                 |                                                 |
| \\      /  F ield         | OpenFOAM: The Open Source CFD Toolbox           |
|  \\    /   O peration     | Version:  2506                                  |
|   \\  /    A nd           | Website:  www.openfoam.com                      |
|    \\/     M anipulation  |                                                 |
\*---------------------------------------------------------------------------*/
FoamFile
{
    version     2.0;
    format      ascii;
    arch        "LSB;label=32;scalar=64";
    class       volScalarField;
    location    "9.375";
    object      pNear;
}
// * * * * * * * * * * * * * * * * * * * * * * * * * * * * * * * * * * * * * //

dimensions      [0 2 -2 0 0 0 0];

internalField   nonuniform List<scalar> 
400
(
4.49136e-16
3.74131e-15
2.43891e-15
3.05269e-15
3.21297e-15
3.38793e-15
3.58271e-15
3.76531e-15
3.90552e-15
4.01386e-15
3.93399e-15
3.68961e-15
3.70473e-15
3.63721e-15
3.6543e-15
3.76785e-15
3.87977e-15
3.58033e-15
3.67609e-15
3.78149e-15
3.01236e-15
0
2.6169e-15
2.8124e-15
3.36502e-15
3.44876e-15
3.60289e-15
3.82166e-15
3.91982e-15
3.84196e-15
4.01702e-15
3.91934e-15
3.63346e-15
3.65353e-15
3.65191e-15
3.70677e-15
3.79471e-15
3.55172e-15
3.57594e-15
3.88689e-15
2.39828e-15
3.52289e-15
2.84152e-15
3.15599e-15
3.27731e-15
3.63229e-15
3.78899e-15
3.89396e-15
4.00166e-15
3.97526e-15
3.82253e-15
3.78299e-15
3.61842e-15
3.66682e-15
3.72612e-15
3.65931e-15
3.66285e-15
3.51263e-15
3.68486e-15
3.75837e-15
2.30861e-15
4.34676e-15
3.12545e-15
3.45442e-15
3.35261e-15
3.61147e-15
3.79445e-15
3.97244e-15
3.91623e-15
4.0126e-15
3.90207e-15
4.03067e-15
3.75927e-15
3.5894e-15
3.55347e-15
3.60229e-15
3.50672e-15
3.40355e-15
3.62049e-15
3.97586e-15
3.42635e-15
1.32579e-15
3.3874e-15
3.41688e-15
3.56787e-15
3.6177e-15
3.71621e-15
3.87746e-15
3.91102e-15
4.05993e-15
4.05038e-15
4.0037e-15
3.71572e-15
3.75358e-15
3.72592e-15
3.56995e-15
3.51119e-15
3.42487e-15
3.57621e-15
4.00391e-15
3.10965e-15
4.7298e-15
3.6427e-15
3.80523e-15
3.66194e-15
3.50713e-15
3.66299e-15
3.94107e-15
3.90021e-15
4.05146e-15
3.94586e-15
3.92003e-15
3.71031e-15
3.78131e-15
3.66516e-15
3.44409e-15
3.56558e-15
3.47022e-15
3.5345e-15
3.91488e-15
3.76669e-15
4.70531e-15
3.72365e-15
3.94314e-15
3.80437e-15
3.5744e-15
3.6305e-15
3.77585e-15
4.11762e-15
4.18946e-15
3.81912e-15
3.69401e-15
3.7702e-15
3.72948e-15
3.75167e-15
3.60933e-15
3.52073e-15
3.40511e-15
3.54008e-15
3.93391e-15
4.67705e-15
5.9423e-16
4.06002e-15
3.9142e-15
3.99099e-15
3.67266e-15
3.83307e-15
3.70479e-15
3.93809e-15
3.93494e-15
3.70318e-15
3.60028e-15
3.78484e-15
3.67408e-15
3.71644e-15
3.54698e-15
3.41419e-15
3.40135e-15
3.70381e-15
3.80197e-15
3.58828e-15
7.36404e-15
4.10979e-15
4.25253e-15
3.96344e-15
3.77497e-15
3.86496e-15
3.8013e-15
3.79341e-15
3.98977e-15
3.72227e-15
3.5305e-15
3.62371e-15
3.70192e-15
3.64906e-15
3.45636e-15
3.29108e-15
3.48562e-15
3.70558e-15
3.76824e-15
4.45551e-15
2.80883e-15
4.2037e-15
4.20276e-15
4.07716e-15
3.93434e-15
3.89072e-15
3.67137e-15
3.76693e-15
3.7675e-15
3.72021e-15
3.58081e-15
3.64942e-15
3.70715e-15
3.57001e-15
3.43737e-15
3.53611e-15
3.59396e-15
3.59804e-15
3.79719e-15
4.50586e-15
3.03543e-15
4.20074e-15
4.14397e-15
4.11197e-15
3.99085e-15
3.96033e-15
3.84516e-15
3.85695e-15
3.59135e-15
3.7105e-15
3.628e-15
3.62063e-15
3.80245e-15
3.65949e-15
3.66237e-15
3.78476e-15
3.52543e-15
3.61714e-15
3.75289e-15
4.01779e-15
7.99069e-15
4.0873e-15
4.32488e-15
3.97728e-15
3.94421e-15
3.90038e-15
3.86144e-15
3.68369e-15
3.61074e-15
3.66864e-15
3.64699e-15
3.52773e-15
3.73665e-15
3.70836e-15
3.78188e-15
3.84071e-15
3.64028e-15
3.66223e-15
3.8444e-15
4.92667e-15
2.18168e-16
4.43568e-15
4.05125e-15
4.08887e-15
4.05617e-15
3.90413e-15
3.89318e-15
3.49085e-15
3.57066e-15
3.70562e-15
3.60883e-15
3.55544e-15
3.81833e-15
3.76075e-15
3.7208e-15
3.82985e-15
3.7742e-15
3.66042e-15
3.84568e-15
4.30661e-15
7.69252e-15
4.26863e-15
4.21701e-15
3.95904e-15
4.08656e-15
3.83711e-15
3.6182e-15
3.52609e-15
3.63161e-15
3.63912e-15
3.62956e-15
3.68185e-15
3.7334e-15
3.89993e-15
3.82359e-15
3.87585e-15
3.78006e-15
3.78381e-15
4.03231e-15
5.1138e-15
3.48993e-15
4.53667e-15
4.2157e-15
4.2004e-15
4.01045e-15
3.8516e-15
3.67056e-15
3.60287e-15
3.66328e-15
3.44023e-15
3.67037e-15
3.72869e-15
3.73502e-15
3.8584e-15
4.05158e-15
3.98944e-15
3.893e-15
3.83278e-15
3.92258e-15
5.49785e-15
2.28625e-15
4.53261e-15
4.35313e-15
4.32333e-15
4.00216e-15
3.83605e-15
3.67011e-15
3.68478e-15
3.78195e-15
3.69185e-15
3.7584e-15
3.74619e-15
3.82102e-15
3.78512e-15
4.0281e-15
4.11279e-15
3.87343e-15
3.70771e-15
3.9027e-15
4.04975e-15
7.04167e-15
4.64936e-15
4.45515e-15
4.13609e-15
4.05096e-15
3.88231e-15
3.78655e-15
3.75966e-15
3.87357e-15
3.93031e-15
3.80215e-15
3.76531e-15
3.83334e-15
3.84063e-15
4.02363e-15
3.90704e-15
3.69702e-15
3.76335e-15
4.0779e-15
4.73588e-15
4.04021e-15
4.65171e-15
4.21918e-15
4.07324e-15
4.04081e-15
4.01952e-15
3.93736e-15
3.83057e-15
3.93942e-15
3.99968e-15
3.93346e-15
3.86304e-15
3.7547e-15
3.84075e-15
3.97131e-15
3.83332e-15
3.77631e-15
3.96165e-15
4.02282e-15
5.39699e-15
2.93997e-15
4.52466e-15
4.18178e-15
4.27426e-15
4.10797e-15
4.12559e-15
3.99134e-15
3.80794e-15
3.89841e-15
4.06498e-15
3.99325e-15
3.87846e-15
3.9179e-15
3.9882e-15
3.97967e-15
3.86102e-15
3.63711e-15
3.88854e-15
4.02893e-15
3.52021e-15
6.31432e-15
4.59717e-15
4.5875e-15
4.43876e-15
4.1821e-15
3.9996e-15
3.96354e-15
3.89968e-15
3.92759e-15
3.9847e-15
3.96149e-15
3.90651e-15
3.8796e-15
4.08687e-15
3.84786e-15
3.74948e-15
3.812e-15
3.777e-15
4.17558e-15
)
;

boundaryField
{
    movingWall
    {
        type            zeroGradient;
    }
    fixedWalls
    {
        type            calculated;
        value           nonuniform List<scalar> 
60
(
8.33619e-16
2.53576e-15
2.47694e-15
2.48972e-15
3.21118e-15
3.25571e-15
3.80469e-15
4.37718e-15
3.88168e-15
4.33298e-15
4.4251e-15
4.22733e-15
4.69733e-15
4.5207e-15
5.05033e-15
5.22303e-15
4.36989e-15
4.73213e-15
5.01631e-15
3.80172e-15
3.7973e-15
3.8518e-15
3.81027e-15
3.94744e-15
3.98635e-15
3.93109e-15
3.91126e-15
3.8167e-15
3.77764e-15
3.7862e-15
3.77326e-15
3.83087e-15
3.87348e-15
3.98786e-15
3.93606e-15
3.93197e-15
4.04336e-15
4.032e-15
4.05001e-15
4.15358e-15
9.42962e-16
3.05212e-15
2.72634e-15
2.98466e-15
3.21517e-15
3.3909e-15
3.58089e-15
3.75895e-15
3.90074e-15
3.98563e-15
3.90931e-15
3.72853e-15
3.69233e-15
3.6499e-15
3.66877e-15
3.7676e-15
3.81806e-15
3.63961e-15
3.67754e-15
3.76568e-15
)
;
    }
    frontAndBack
    {
        type            empty;
    }
}


// ************************************************************************* //
