/*--------------------------------*- C++ -*----------------------------------*\
| =========                 |                                                 |
| \\      /  F ield         | OpenFOAM: The Open Source CFD Toolbox           |
|  \\    /   O peration     | Version:  2506                                  |
|   \\  /    A nd           | Website:  www.openfoam.com                      |
|    \\/     M anipulation  |                                                 |
\*---------------------------------------------------------------------------*/
FoamFile
{
    version     2.0;
    format      ascii;
    arch        "LSB;label=32;scalar=64";
    class       volScalarField;
    location    "9.375";
    object      QField;
}
// * * * * * * * * * * * * * * * * * * * * * * * * * * * * * * * * * * * * * //

dimensions      [0 0 -2 0 0 0 0];

internalField   nonuniform List<scalar> 
400
(
-4.74054e-23
-1.42848e-23
-8.03459e-25
4.0349e-26
-1.03865e-26
1.48001e-27
-1.81776e-27
-3.94636e-28
-1.10508e-28
-7.60527e-28
1.7232e-28
-2.02875e-28
-6.22989e-28
0
-5.00812e-30
-5.43839e-28
-9.86461e-28
-6.48188e-28
0
0
-8.98245e-23
-2.66773e-23
-1.5354e-24
-3.77967e-26
-2.3947e-27
1.12825e-27
1.17527e-27
2.9251e-30
-5.37927e-28
-1.60972e-27
3.62827e-28
-2.73612e-29
0
-2.57771e-29
0
-9.86376e-29
1.49538e-27
-4.5346e-28
-1.35775e-27
0
-8.21667e-23
-2.70658e-23
-2.74907e-25
-8.86769e-26
1.89423e-26
-2.09501e-27
1.80554e-28
0
4.63123e-28
4.12302e-29
-1.55933e-28
-8.77107e-28
-7.07925e-29
-2.08795e-29
1.25772e-27
0
0
9.00056e-28
-3.07057e-28
-7.27516e-28
-6.14509e-23
-1.78913e-23
-7.68544e-25
4.70376e-27
-7.01107e-27
1.69658e-27
5.92539e-29
-4.66634e-28
-3.45934e-28
-2.13363e-27
6.07079e-28
-5.23597e-28
0
-2.81293e-27
-1.68094e-27
1.1028e-28
0
3.96456e-28
7.57896e-29
-7.54215e-28
-4.73022e-23
-1.3356e-23
-7.7498e-25
-1.37173e-26
7.83688e-28
9.7358e-28
-1.48432e-28
2.09126e-28
1.44596e-28
-1.63251e-28
3.42409e-29
2.29393e-28
2.05614e-27
1.56365e-29
1.44664e-27
1.53549e-28
0
1.44367e-28
4.42878e-28
-2.92518e-28
-4.15944e-23
-1.28937e-23
-3.71474e-25
2.91532e-26
-2.58293e-27
-2.29992e-27
3.86672e-28
1.02299e-27
-2.28882e-28
-9.16705e-29
-6.25166e-29
1.03906e-27
-2.35819e-28
-8.5849e-29
-2.49718e-28
-1.06987e-27
-2.27226e-28
0
0
0
-2.33133e-23
-9.75429e-24
1.51636e-25
-1.48022e-26
8.94211e-27
-5.70023e-28
-1.47329e-29
-2.02072e-30
-2.17042e-28
-4.41402e-28
0
1.93947e-27
1.32983e-28
0
-4.01858e-28
6.15393e-28
-1.20334e-29
0
-1.4541e-28
9.97037e-29
-6.46909e-24
-4.32945e-24
-3.77255e-25
6.2043e-27
-1.68383e-27
1.07144e-27
5.6036e-28
3.34681e-28
-4.69561e-28
-2.5812e-27
-3.0102e-27
-1.44769e-28
-2.21432e-27
0
-2.17147e-28
5.57935e-28
-5.5483e-28
-8.95354e-28
0
-6.60534e-29
-1.07055e-23
-4.75505e-24
-2.57115e-25
-7.92259e-27
6.21345e-27
-6.21576e-28
-7.53173e-28
2.63372e-28
3.01845e-27
2.7202e-27
-1.62484e-28
-1.34161e-27
-4.03059e-28
-2.08236e-28
-1.21991e-28
1.41484e-28
-3.21737e-28
-6.21625e-28
0
-1.27774e-28
-2.97756e-24
-5.01149e-24
1.37518e-25
5.73413e-26
0
2.14725e-27
0
-3.19096e-27
-7.33589e-28
0
3.65909e-28
8.89094e-29
0
1.31379e-29
1.14494e-28
3.55704e-28
2.89523e-28
2.28867e-28
1.0214e-28
-1.02304e-28
9.88441e-24
-1.40735e-24
4.68754e-25
6.73017e-26
1.04788e-26
-6.09336e-28
2.62118e-27
0
7.27054e-29
-2.22565e-28
0
-1.50437e-28
1.09221e-28
-8.12912e-28
2.32895e-28
1.52266e-28
-4.97151e-28
-4.47639e-28
-1.11149e-28
0
9.91237e-24
3.56568e-25
8.18076e-26
2.90529e-26
1.15154e-26
-2.43257e-27
3.61826e-28
5.15998e-28
-1.25356e-27
-3.60385e-28
1.02093e-27
4.44757e-27
7.52892e-28
-4.89976e-28
-7.52753e-28
-6.52468e-28
-2.01383e-28
2.24197e-28
8.42098e-29
1.40022e-28
8.4511e-24
5.02387e-25
-2.20369e-25
2.45464e-26
2.50346e-27
3.07492e-28
2.26575e-27
1.92866e-28
-6.41592e-28
0
-8.98935e-28
0
-2.37499e-27
3.30057e-28
0
-4.87364e-28
0
0
-1.0394e-27
0
-1.29795e-23
-5.26454e-24
-3.31693e-25
1.08336e-26
1.03197e-26
-1.31582e-27
1.56039e-27
-8.96783e-28
-9.70219e-28
0
4.81646e-28
1.40647e-27
-5.07814e-28
-3.82791e-28
1.67368e-28
5.02405e-28
2.37775e-28
1.07923e-28
8.46714e-29
-1.88048e-28
-4.15728e-23
-1.69215e-23
4.13832e-25
-8.48163e-27
1.65992e-26
-5.97435e-27
-2.45211e-28
1.67263e-28
2.59229e-28
2.63766e-28
-1.07775e-27
7.05136e-28
1.64422e-27
-1.02575e-28
-4.10131e-28
-6.55101e-29
-2.62907e-29
0
4.01914e-28
-9.68256e-29
-5.09518e-23
-1.81989e-23
-3.3425e-25
-2.04842e-26
1.00497e-26
-1.14754e-27
5.49212e-28
-9.97465e-29
2.91483e-28
4.57508e-28
0
0
-1.67817e-28
0
-8.55557e-28
0
-2.05156e-29
2.41023e-28
-1.57679e-28
-6.26887e-29
-5.89489e-23
-1.80003e-23
-1.06256e-24
-3.81805e-26
-3.44039e-28
4.75067e-28
8.91407e-28
-3.31394e-29
-1.91046e-28
-3.09009e-28
-4.94975e-28
-7.29916e-29
1.38422e-28
-2.48219e-28
-6.77806e-28
-7.73907e-28
4.63393e-29
1.12273e-27
-3.40811e-28
3.00943e-28
-6.85835e-23
-2.30881e-23
-3.10268e-25
-9.25888e-26
1.23811e-26
-9.27226e-28
4.19346e-28
-4.27013e-29
4.59579e-28
-3.18183e-29
-5.36528e-29
1.01312e-28
1.82435e-28
-9.20655e-29
1.51379e-28
1.10437e-28
1.86031e-29
0
-5.6253e-28
0
-6.37047e-23
-1.87348e-23
-8.52771e-25
-4.98069e-26
2.97436e-27
7.54941e-28
-9.34223e-29
3.5856e-28
-1.16959e-28
1.29202e-28
-1.08514e-28
0
-8.30611e-29
0
1.03712e-27
2.92041e-29
0
-1.29663e-27
0
-2.83878e-28
-2.74526e-23
-8.12532e-24
-5.53403e-25
7.86637e-27
-7.69974e-27
-2.09107e-28
4.43466e-29
0
-5.17536e-28
0
0
0
0
-1.01835e-28
-1.06555e-27
0
2.24232e-28
-1.82891e-28
0
-8.99293e-29
)
;

boundaryField
{
    movingWall
    {
        type            calculated;
        value           nonuniform List<scalar> 
20
(
7.46866e-24
5.6559e-24
-1.13778e-24
1.41059e-25
-3.32532e-26
4.11407e-27
-5.04545e-28
-1.09706e-27
-5.89935e-28
3.637e-28
3.65288e-29
-2.95774e-28
-1.95583e-28
-5.0054e-28
-7.66942e-28
5.00839e-28
-5.18325e-28
-1.37506e-27
0
-1.4864e-28
)
;
    }
    fixedWalls
    {
        type            calculated;
        value           nonuniform List<scalar> 
60
(
-2.6292e-22
-4.93175e-22
-4.23646e-22
-3.21492e-22
-2.49402e-22
-2.14631e-22
-1.20999e-22
-5.98665e-23
-7.11258e-23
-2.17312e-23
4.91592e-23
4.33168e-23
2.37613e-23
-8.78403e-23
-2.11493e-22
-2.7578e-22
-3.29234e-22
-3.50712e-22
-3.44563e-22
-1.55396e-22
0
0
-6.31402e-28
-1.42215e-27
-4.15464e-28
0
2.31382e-28
-4.76479e-28
-4.71323e-29
-1.67614e-28
-7.37948e-30
2.29412e-28
5.25435e-29
-3.08099e-28
-3.14156e-28
-5.37817e-28
1.58969e-28
-3.31448e-28
-7.74042e-28
1.29933e-30
1.4952e-23
1.22649e-23
-2.54869e-24
3.17098e-25
-6.8069e-26
9.69938e-27
-5.29862e-27
-5.01285e-29
-9.05283e-28
-1.30496e-27
2.82329e-28
-1.32956e-27
-1.57597e-27
0
4.10265e-30
-8.91118e-28
-1.6482e-27
-9.15844e-29
0
0
)
;
    }
    frontAndBack
    {
        type            empty;
    }
}


// ************************************************************************* //
