/*--------------------------------*- C++ -*----------------------------------*\
| =========                 |                                                 |
| \\      /  F ield         | OpenFOAM: The Open Source CFD Toolbox           |
|  \\    /   O peration     | Version:  2506                                  |
|   \\  /    A nd           | Website:  www.openfoam.com                      |
|    \\/     M anipulation  |                                                 |
\*---------------------------------------------------------------------------*/
FoamFile
{
    version     2.0;
    format      ascii;
    arch        "LSB;label=32;scalar=64";
    class       volVectorField;
    location    "9.375";
    object      UNear;
}
// * * * * * * * * * * * * * * * * * * * * * * * * * * * * * * * * * * * * * //

dimensions      [0 1 -1 0 0 0 0];

internalField   nonuniform List<vector> 
400
(
(-1 1.71593e-13 0)
(-1 -3.73551e-14 0)
(-1 8.85248e-15 0)
(-1 -1.93887e-15 0)
(-1 3.92727e-16 0)
(-1 -2.28956e-17 0)
(-1 1.19714e-16 0)
(-1 6.40479e-17 0)
(-1 9.06979e-17 0)
(-1 1.04818e-16 0)
(-1 3.62085e-17 0)
(-1 4.12434e-17 0)
(-1 1.11056e-16 0)
(-1 8.31149e-17 0)
(-1 6.0194e-17 0)
(-1 8.21911e-17 0)
(-1 4.06142e-17 0)
(-1 -4.22358e-18 0)
(-1 4.02915e-17 0)
(-1 -1.54677e-17 0)
(-1 1.27426e-14 0)
(-1 -2.53522e-15 0)
(-1 6.56294e-16 0)
(-1 -9.44917e-17 0)
(-1 4.54093e-17 0)
(-1 2.34603e-17 0)
(-1 1.28659e-16 0)
(-1 1.39579e-16 0)
(-1 1.28929e-16 0)
(-1 8.99637e-17 0)
(-1 1.2037e-16 0)
(-1 1.21269e-16 0)
(-1 1.18786e-16 0)
(-1 2.69579e-17 0)
(-1 1.76492e-17 0)
(-1 1.1845e-16 0)
(-1 5.4941e-17 0)
(-1 -1.15023e-16 0)
(-1 -9.44023e-17 0)
(-1 -3.51105e-18 0)
(-1 -1.60467e-13 0)
(-1 3.49215e-14 0)
(-1 -8.16707e-15 0)
(-1 1.89479e-15 0)
(-1 -2.84921e-16 0)
(-1 7.50528e-17 0)
(-1 -2.72807e-17 0)
(-1 8.44032e-18 0)
(-1 -2.08747e-18 0)
(-1 -8.74357e-17 0)
(-1 -3.7348e-18 0)
(-1 4.39153e-17 0)
(-1 1.42917e-16 0)
(-1 1.93762e-16 0)
(-1 1.35214e-16 0)
(-1 4.58002e-17 0)
(-1 -4.41383e-17 0)
(-1 -1.71521e-16 0)
(-1 -2.10169e-16 0)
(-1 -5.82366e-17 0)
(-1 1.14135e-13 0)
(-1 -2.52582e-14 0)
(-1 5.91752e-15 0)
(-1 -1.28188e-15 0)
(-1 3.35891e-16 0)
(-1 1.14307e-17 0)
(-1 2.29273e-17 0)
(-1 -5.61694e-17 0)
(-1 1.21635e-17 0)
(-1 7.14577e-17 0)
(-1 6.28407e-17 0)
(-1 -4.05286e-17 0)
(-1 -4.41193e-17 0)
(-1 -2.07803e-17 0)
(-1 7.58267e-18 0)
(-1 -9.62015e-18 0)
(-1 -3.31036e-17 0)
(-1 -5.50056e-17 0)
(-1 -7.76049e-17 0)
(-1 -8.2967e-17 0)
(-1 5.64991e-16 0)
(-1 -2.06847e-16 0)
(-1 1.59838e-17 0)
(-1 -2.83307e-17 0)
(-1 5.97783e-17 0)
(-1 2.29506e-16 0)
(-1 2.21259e-16 0)
(-1 2.02125e-16 0)
(-1 2.59836e-16 0)
(-1 2.55472e-16 0)
(-1 2.01788e-16 0)
(-1 7.26531e-17 0)
(-1 -9.20435e-17 0)
(-1 -1.86635e-16 0)
(-1 -7.5225e-17 0)
(-1 3.52919e-17 0)
(-1 -1.85753e-17 0)
(-1 -2.52542e-17 0)
(-1 8.05577e-18 0)
(-1 6.05529e-19 0)
(-1 -1.09551e-13 0)
(-1 2.39781e-14 0)
(-1 -5.5263e-15 0)
(-1 1.29231e-15 0)
(-1 -1.48491e-16 0)
(-1 2.98165e-16 0)
(-1 1.85809e-16 0)
(-1 1.55508e-16 0)
(-1 3.32978e-17 0)
(-1 1.5592e-17 0)
(-1 5.0208e-17 0)
(-1 4.41024e-17 0)
(-1 -6.3401e-17 0)
(-1 -6.01862e-17 0)
(-1 -8.22776e-17 0)
(-1 -8.36846e-17 0)
(-1 -3.59387e-17 0)
(-1 1.35867e-17 0)
(-1 3.40688e-17 0)
(-1 7.63047e-18 0)
(-1 1.42059e-13 0)
(-1 -3.06487e-14 0)
(-1 7.16373e-15 0)
(-1 -1.48385e-15 0)
(-1 5.36245e-16 0)
(-1 1.39546e-16 0)
(-1 1.87197e-16 0)
(-1 1.65929e-16 0)
(-1 7.76988e-17 0)
(-1 1.91199e-16 0)
(-1 1.78724e-16 0)
(-1 3.01335e-17 0)
(-1 -1.79045e-16 0)
(-1 -1.54962e-16 0)
(-1 -1.67355e-16 0)
(-1 -8.08326e-17 0)
(-1 6.52562e-17 0)
(-1 6.70379e-17 0)
(-1 3.68844e-17 0)
(-1 3.62167e-17 0)
(-1 -6.25328e-14 0)
(-1 1.31077e-14 0)
(-1 -3.14019e-15 0)
(-1 7.09088e-16 0)
(-1 -9.62273e-17 0)
(-1 8.78632e-17 0)
(-1 1.01226e-16 0)
(-1 1.54762e-16 0)
(-1 1.63913e-16 0)
(-1 9.70163e-17 0)
(-1 6.53836e-17 0)
(-1 1.39659e-16 0)
(-1 7.26328e-17 0)
(-1 -2.91647e-17 0)
(-1 -1.00113e-16 0)
(-1 -7.81136e-17 0)
(-1 -3.14991e-17 0)
(-1 -6.74878e-17 0)
(-1 -1.9578e-17 0)
(-1 4.39474e-17 0)
(-1 -6.27748e-14 0)
(-1 1.358e-14 0)
(-1 -3.03496e-15 0)
(-1 8.05131e-16 0)
(-1 -1.12043e-16 0)
(-1 4.10115e-17 0)
(-1 1.17278e-16 0)
(-1 1.33636e-16 0)
(-1 2.01112e-17 0)
(-1 -1.86418e-16 0)
(-1 -2.19894e-16 0)
(-1 -3.77751e-17 0)
(-1 3.69937e-17 0)
(-1 -4.77934e-17 0)
(-1 -8.72415e-17 0)
(-1 -1.33037e-16 0)
(-1 -1.3944e-16 0)
(-1 -8.62046e-17 0)
(-1 -2.06541e-17 0)
(-1 -2.64862e-17 0)
(-1 1.47247e-13 0)
(-1 -3.18948e-14 0)
(-1 7.44201e-15 0)
(-1 -1.59801e-15 0)
(-1 3.90273e-16 0)
(-1 -1.10926e-16 0)
(-1 -5.82467e-18 0)
(-1 -2.38478e-17 0)
(-1 -2.68922e-18 0)
(-1 5.34576e-17 0)
(-1 -5.32863e-17 0)
(-1 -1.07824e-16 0)
(-1 -8.60881e-17 0)
(-1 -1.0599e-16 0)
(-1 -3.49878e-17 0)
(-1 -6.37493e-17 0)
(-1 -1.03367e-16 0)
(-1 4.30657e-17 0)
(-1 3.75251e-17 0)
(-1 -1.01028e-17 0)
(-1 -1.62641e-13 0)
(-1 3.50495e-14 0)
(-1 -8.05438e-15 0)
(-1 2.00074e-15 0)
(-1 -2.65164e-16 0)
(-1 6.77463e-17 0)
(-1 -1.52761e-16 0)
(-1 -2.54602e-16 0)
(-1 -1.7323e-16 0)
(-1 -6.84687e-17 0)
(-1 -3.2327e-17 0)
(-1 -1.2345e-17 0)
(-1 2.31743e-17 0)
(-1 -5.26404e-17 0)
(-1 -6.56807e-17 0)
(-1 -1.38563e-16 0)
(-1 -1.21857e-16 0)
(-1 -2.97497e-17 0)
(-1 1.7029e-17 0)
(-1 1.12572e-17 0)
(-1 1.08144e-13 0)
(-1 -2.34378e-14 0)
(-1 5.51809e-15 0)
(-1 -1.23244e-15 0)
(-1 2.1532e-16 0)
(-1 -1.65646e-16 0)
(-1 -7.71052e-17 0)
(-1 -9.89012e-17 0)
(-1 -2.95128e-17 0)
(-1 -1.69557e-16 0)
(-1 -1.62472e-16 0)
(-1 1.87707e-17 0)
(-1 1.65701e-16 0)
(-1 1.32821e-16 0)
(-1 7.12165e-17 0)
(-1 4.02484e-17 0)
(-1 -1.16587e-17 0)
(-1 -3.95091e-17 0)
(-1 5.20187e-17 0)
(-1 -8.44112e-18 0)
(-1 2.2201e-15 0)
(-1 -3.57049e-17 0)
(-1 -7.80306e-17 0)
(-1 -1.42989e-16 0)
(-1 -2.68916e-16 0)
(-1 -2.44865e-16 0)
(-1 -7.35293e-17 0)
(-1 3.37732e-17 0)
(-1 6.62565e-18 0)
(-1 -5.52786e-17 0)
(-1 -6.16132e-17 0)
(-1 -8.39028e-17 0)
(-1 -4.12073e-17 0)
(-1 3.36443e-17 0)
(-1 -1.49074e-17 0)
(-1 1.92796e-17 0)
(-1 -4.75601e-17 0)
(-1 -7.43904e-17 0)
(-1 -2.44917e-17 0)
(-1 -4.04018e-17 0)
(-1 -1.24469e-13 0)
(-1 2.76204e-14 0)
(-1 -6.05049e-15 0)
(-1 1.65898e-15 0)
(-1 -2.46487e-16 0)
(-1 1.11682e-16 0)
(-1 -6.13559e-17 0)
(-1 -9.44013e-17 0)
(-1 -1.47866e-16 0)
(-1 -6.11512e-17 0)
(-1 3.35277e-18 0)
(-1 -1.49999e-16 0)
(-1 -1.26371e-16 0)
(-1 3.73508e-17 0)
(-1 1.48535e-17 0)
(-1 -7.42521e-17 0)
(-1 -1.05196e-16 0)
(-1 -1.61976e-16 0)
(-1 -1.39717e-16 0)
(-1 -1.4357e-17 0)
(-1 1.87316e-13 0)
(-1 -4.0666e-14 0)
(-1 9.56315e-15 0)
(-1 -2.14143e-15 0)
(-1 4.43802e-16 0)
(-1 -1.29675e-16 0)
(-1 -1.55287e-16 0)
(-1 -1.74909e-16 0)
(-1 -1.39098e-16 0)
(-1 -1.2709e-16 0)
(-1 -1.06661e-16 0)
(-1 -8.63561e-17 0)
(-1 -4.24697e-18 0)
(-1 1.15847e-16 0)
(-1 1.21623e-16 0)
(-1 -3.54647e-17 0)
(-1 -7.3151e-17 0)
(-1 -4.51642e-17 0)
(-1 6.74651e-18 0)
(-1 2.89758e-17 0)
(-1 -1.13069e-13 0)
(-1 2.43529e-14 0)
(-1 -5.89257e-15 0)
(-1 1.21195e-15 0)
(-1 -2.76071e-16 0)
(-1 -2.39441e-17 0)
(-1 -1.34948e-16 0)
(-1 -1.25256e-16 0)
(-1 -1.25944e-16 0)
(-1 -1.61102e-16 0)
(-1 -1.83498e-16 0)
(-1 -1.02908e-16 0)
(-1 -1.23506e-16 0)
(-1 -1.26363e-16 0)
(-1 -3.47833e-17 0)
(-1 -5.00832e-17 0)
(-1 -1.7984e-17 0)
(-1 5.24028e-17 0)
(-1 2.64768e-17 0)
(-1 -4.96049e-17 0)
(-1 -3.55997e-14 0)
(-1 7.44625e-15 0)
(-1 -1.84896e-15 0)
(-1 3.7768e-16 0)
(-1 -5.29869e-17 0)
(-1 -2.92651e-17 0)
(-1 -1.40621e-16 0)
(-1 -1.93701e-16 0)
(-1 -1.34508e-16 0)
(-1 -1.23217e-16 0)
(-1 -1.33142e-16 0)
(-1 -9.86826e-17 0)
(-1 -1.13071e-16 0)
(-1 -1.24217e-16 0)
(-1 -1.12479e-16 0)
(-1 -4.08615e-17 0)
(-1 3.31194e-17 0)
(-1 -4.94096e-17 0)
(-1 -1.24348e-16 0)
(-1 -3.4075e-17 0)
(-1 1.4088e-13 0)
(-1 -3.06195e-14 0)
(-1 7.1377e-15 0)
(-1 -1.68744e-15 0)
(-1 2.57803e-16 0)
(-1 -1.64831e-16 0)
(-1 -8.42834e-17 0)
(-1 -8.7475e-17 0)
(-1 -6.27491e-17 0)
(-1 -4.98297e-17 0)
(-1 -7.4488e-17 0)
(-1 -6.96241e-17 0)
(-1 -3.71105e-17 0)
(-1 -3.59709e-17 0)
(-1 -7.73784e-17 0)
(-1 1.98782e-17 0)
(-1 7.76267e-17 0)
(-1 2.33099e-17 0)
(-1 -8.39258e-17 0)
(-1 -2.21048e-18 0)
(-1 -5.95016e-14 0)
(-1 1.26353e-14 0)
(-1 -3.10843e-15 0)
(-1 4.97811e-16 0)
(-1 -3.27916e-16 0)
(-1 -6.7988e-17 0)
(-1 -4.93919e-17 0)
(-1 -9.18094e-17 0)
(-1 -1.15535e-16 0)
(-1 -7.65609e-17 0)
(-1 -6.78676e-17 0)
(-1 -7.14218e-17 0)
(-1 -7.78632e-17 0)
(-1 -1.17915e-16 0)
(-1 -1.18909e-16 0)
(-1 7.33997e-17 0)
(-1 1.06857e-16 0)
(-1 2.19399e-17 0)
(-1 -3.33396e-17 0)
(-1 -7.13928e-17 0)
(-1 -8.76504e-14 0)
(-1 1.86398e-14 0)
(-1 -4.56328e-15 0)
(-1 8.21046e-16 0)
(-1 -3.42251e-16 0)
(-1 -9.15874e-18 0)
(-1 -2.59953e-17 0)
(-1 -6.81849e-17 0)
(-1 -7.54024e-17 0)
(-1 -5.53734e-17 0)
(-1 -3.44534e-17 0)
(-1 -5.3317e-17 0)
(-1 -6.77546e-17 0)
(-1 -7.53377e-17 0)
(-1 -1.05325e-16 0)
(-1 9.10378e-18 0)
(-1 7.45375e-18 0)
(-1 -8.94149e-17 0)
(-1 -3.82147e-17 0)
(-1 -4.97329e-17 0)
)
;

boundaryField
{
    movingWall
    {
        type            fixedValue;
        value           uniform (-1 -0 -0);
    }
    fixedWalls
    {
        type            calculated;
        value           nonuniform List<vector> 
60
(
(-1 6.86374e-14 0)
(-1 5.09704e-15 0)
(-1 -6.41869e-14 0)
(-1 4.5654e-14 0)
(-1 2.25996e-16 0)
(-1 -4.38204e-14 0)
(-1 5.68237e-14 0)
(-1 -2.50131e-14 0)
(-1 -2.51099e-14 0)
(-1 5.88988e-14 0)
(-1 -6.50563e-14 0)
(-1 4.32577e-14 0)
(-1 8.88039e-16 0)
(-1 -4.97877e-14 0)
(-1 7.49266e-14 0)
(-1 -4.52276e-14 0)
(-1 -1.42399e-14 0)
(-1 5.6352e-14 0)
(-1 -2.38006e-14 0)
(-1 -3.50602e-14 0)
(-1 -6.18709e-18 0)
(-1 -1.40442e-18 0)
(-1 -2.32946e-17 0)
(-1 -3.31868e-17 0)
(-1 2.42212e-19 0)
(-1 3.05219e-18 0)
(-1 1.44867e-17 0)
(-1 1.7579e-17 0)
(-1 -1.05945e-17 0)
(-1 -4.04113e-18 0)
(-1 4.50289e-18 0)
(-1 -3.37645e-18 0)
(-1 -1.61607e-17 0)
(-1 -5.7428e-18 0)
(-1 1.15903e-17 0)
(-1 -1.98419e-17 0)
(-1 -1.363e-17 0)
(-1 -8.84194e-19 0)
(-1 -2.85571e-17 0)
(-1 -1.98932e-17 0)
(-1 6.86374e-14 0)
(-1 -1.4942e-14 0)
(-1 3.54099e-15 0)
(-1 -7.75547e-16 0)
(-1 1.57091e-16 0)
(-1 -9.15825e-18 0)
(-1 4.78855e-17 0)
(-1 2.56192e-17 0)
(-1 3.62792e-17 0)
(-1 4.19273e-17 0)
(-1 1.44834e-17 0)
(-1 1.64973e-17 0)
(-1 4.44224e-17 0)
(-1 3.3246e-17 0)
(-1 2.40776e-17 0)
(-1 3.28764e-17 0)
(-1 1.62457e-17 0)
(-1 -1.68943e-18 0)
(-1 1.61166e-17 0)
(-1 -6.18709e-18 0)
)
;
    }
    frontAndBack
    {
        type            empty;
    }
}


// ************************************************************************* //
