/*--------------------------------*- C++ -*----------------------------------*\
| =========                 |                                                 |
| \\      /  F ield         | OpenFOAM: The Open Source CFD Toolbox           |
|  \\    /   O peration     | Version:  2506                                  |
|   \\  /    A nd           | Website:  www.openfoam.com                      |
|    \\/     M anipulation  |                                                 |
\*---------------------------------------------------------------------------*/
FoamFile
{
    version     2.0;
    format      ascii;
    arch        "LSB;label=32;scalar=64";
    class       volVectorField;
    location    "9.375";
    object      vorticityField;
}
// * * * * * * * * * * * * * * * * * * * * * * * * * * * * * * * * * * * * * //

dimensions      [0 0 -1 0 0 0 0];

internalField   nonuniform List<vector> 
400
(
(0 -0 1.17162e-11)
(0 -0 -1.58946e-11)
(0 -0 3.4603e-12)
(0 -0 -9.00185e-13)
(0 -0 1.37387e-13)
(0 -0 -8.15114e-14)
(0 -0 -4.55158e-14)
(0 -0 -5.71117e-14)
(0 -0 -2.3028e-14)
(0 -0 -5.96591e-14)
(0 -0 -3.34625e-14)
(0 -0 -1.96203e-14)
(0 -0 4.18715e-15)
(0 -0 -5.08621e-15)
(0 -0 5.41177e-14)
(0 -0 -1.95798e-15)
(0 -0 4.55686e-14)
(0 -0 5.41778e-14)
(0 -0 -1.12441e-15)
(0 -0 -2.48238e-15)
(0 -0 3.16006e-13)
(0 -0 -8.56264e-13)
(0 -0 3.79598e-13)
(0 -0 4.73318e-14)
(0 -0 1.20215e-13)
(0 -0 1.4385e-13)
(0 -0 1.47137e-13)
(0 -0 1.08447e-13)
(0 -0 1.03459e-13)
(0 -0 5.33541e-14)
(0 -0 8.44457e-14)
(0 -0 8.11568e-14)
(0 -0 -9.43113e-15)
(0 -0 -3.72187e-14)
(0 -0 9.14922e-15)
(0 -0 3.72917e-15)
(0 -0 -7.75574e-14)
(0 -0 -1.49343e-14)
(0 -0 1.11512e-14)
(0 -0 9.79133e-15)
(0 -0 -6.7541e-12)
(0 -0 1.36308e-11)
(0 -0 -3.27556e-12)
(0 -0 6.79795e-13)
(0 -0 -2.90394e-13)
(0 -0 -5.55511e-14)
(0 -0 -3.37663e-14)
(0 -0 2.51932e-15)
(0 -0 -9.09028e-14)
(0 -0 5.40454e-14)
(0 -0 1.31351e-14)
(0 -0 1.46652e-14)
(0 -0 6.91948e-14)
(0 -0 2.63347e-14)
(0 -0 -9.61113e-14)
(0 -0 -1.79352e-14)
(0 -0 -2.17321e-14)
(0 -0 -7.08132e-14)
(0 -0 -1.57766e-14)
(0 -0 -2.64466e-16)
(0 -0 4.82192e-12)
(0 -0 -9.84596e-12)
(0 -0 2.26211e-12)
(0 -0 -5.85268e-13)
(0 -0 7.51214e-14)
(0 -0 -8.55065e-14)
(0 -0 -1.1518e-13)
(0 -0 -5.52865e-14)
(0 -0 -1.43423e-14)
(0 -0 -4.91424e-14)
(0 -0 -6.54087e-14)
(0 -0 1.64091e-14)
(0 -0 1.97482e-15)
(0 -0 5.93803e-14)
(0 -0 2.82211e-14)
(0 -0 -3.11737e-14)
(0 -0 -4.53855e-15)
(0 -0 -4.45014e-15)
(0 -0 -2.99012e-14)
(0 -0 -1.10479e-14)
(0 -0 -2.62341e-13)
(0 -0 1.34835e-13)
(0 -0 4.49567e-14)
(0 -0 5.85896e-14)
(0 -0 1.07099e-13)
(0 -0 1.24568e-13)
(0 -0 5.1472e-14)
(0 -0 5.80678e-14)
(0 -0 3.24397e-14)
(0 -0 4.84054e-14)
(0 -0 -1.82819e-14)
(0 -0 -2.93832e-14)
(0 -0 -1.07244e-13)
(0 -0 -5.25283e-14)
(0 -0 7.64028e-14)
(0 -0 3.277e-14)
(0 -0 -6.05461e-15)
(0 -0 5.68732e-14)
(0 -0 5.67961e-14)
(0 -0 5.3344e-14)
(0 -0 -5.9823e-12)
(0 -0 9.67063e-12)
(0 -0 -2.24148e-12)
(0 -0 5.91991e-13)
(0 -0 -9.94147e-14)
(0 -0 -2.07802e-14)
(0 -0 -4.13708e-14)
(0 -0 -6.94612e-14)
(0 -0 -6.82017e-14)
(0 -0 -5.25191e-14)
(0 -0 2.85104e-15)
(0 -0 -9.26761e-14)
(0 -0 -1.04289e-14)
(0 -0 -1.88766e-15)
(0 -0 -2.34984e-15)
(0 -0 -2.24712e-14)
(0 -0 9.72713e-15)
(0 -0 7.00075e-15)
(0 -0 -5.95627e-16)
(0 -0 -4.16993e-15)
(0 -0 8.94554e-12)
(0 -0 -1.27577e-11)
(0 -0 2.9707e-12)
(0 -0 -6.35643e-13)
(0 -0 2.1655e-13)
(0 -0 -3.49048e-14)
(0 -0 8.39534e-14)
(0 -0 -1.09498e-14)
(0 -0 5.67372e-14)
(0 -0 1.01025e-14)
(0 -0 -1.61065e-14)
(0 -0 -8.9987e-14)
(0 -0 -4.56146e-14)
(0 -0 1.16908e-15)
(0 -0 -4.67971e-14)
(0 -0 5.03661e-14)
(0 -0 1.47871e-14)
(0 -0 -2.83718e-15)
(0 -0 -3.08212e-15)
(0 -0 -3.44152e-14)
(0 -0 -3.85831e-12)
(0 -0 5.614e-12)
(0 -0 -1.15854e-12)
(0 -0 3.04396e-13)
(0 -0 -3.50174e-14)
(0 -0 1.0106e-13)
(0 -0 3.37949e-14)
(0 -0 8.75839e-14)
(0 -0 7.55406e-14)
(0 -0 4.43572e-14)
(0 -0 5.84744e-14)
(0 -0 5.4935e-14)
(0 -0 1.02226e-14)
(0 -0 -1.72746e-14)
(0 -0 -4.89489e-15)
(0 -0 8.81765e-14)
(0 -0 1.06257e-15)
(0 -0 -5.3018e-14)
(0 -0 1.11435e-14)
(0 -0 2.46681e-14)
(0 -0 -5.05501e-12)
(0 -0 5.89267e-12)
(0 -0 -1.41301e-12)
(0 -0 2.65187e-13)
(0 -0 -1.57727e-13)
(0 -0 -4.17294e-15)
(0 -0 -7.20528e-14)
(0 -0 -3.68217e-14)
(0 -0 -1.40426e-13)
(0 -0 -1.32421e-13)
(0 -0 -3.93458e-14)
(0 -0 2.56887e-14)
(0 -0 -2.81069e-14)
(0 -0 -1.24235e-14)
(0 -0 -3.56294e-14)
(0 -0 -3.23249e-14)
(0 -0 -2.24218e-14)
(0 -0 -1.52265e-14)
(0 -0 5.97184e-15)
(0 -0 -2.2391e-14)
(0 -0 1.15352e-11)
(0 -0 -1.37095e-11)
(0 -0 3.11099e-12)
(0 -0 -7.86489e-13)
(0 -0 1.48709e-13)
(0 -0 -9.38199e-14)
(0 -0 8.70787e-15)
(0 -0 -1.08107e-13)
(0 -0 -1.93745e-14)
(0 -0 -5.05971e-15)
(0 -0 -7.03383e-14)
(0 -0 -3.03852e-14)
(0 -0 1.83375e-16)
(0 -0 5.11003e-15)
(0 -0 3.13292e-14)
(0 -0 -6.1048e-14)
(0 -0 3.77866e-14)
(0 -0 4.11942e-14)
(0 -0 -5.31685e-15)
(0 -0 -2.74223e-15)
(0 -0 -1.33012e-11)
(0 -0 1.53231e-11)
(0 -0 -3.4404e-12)
(0 -0 8.60237e-13)
(0 -0 -2.47509e-13)
(0 -0 -4.29698e-14)
(0 -0 -1.1355e-13)
(0 -0 -2.0469e-15)
(0 -0 1.86134e-14)
(0 -0 4.11954e-14)
(0 -0 5.61237e-15)
(0 -0 -2.15549e-14)
(0 -0 -3.11346e-14)
(0 -0 -6.30956e-14)
(0 -0 -3.56974e-14)
(0 -0 -3.27227e-14)
(0 -0 1.08814e-14)
(0 -0 1.38886e-14)
(0 -0 -2.30044e-14)
(0 -0 -2.82862e-15)
(0 -0 7.84724e-12)
(0 -0 -9.99157e-12)
(0 -0 2.24764e-12)
(0 -0 -5.30277e-13)
(0 -0 2.151e-13)
(0 -0 2.49676e-14)
(0 -0 6.08846e-14)
(0 -0 1.13179e-13)
(0 -0 1.01355e-13)
(0 -0 1.38092e-14)
(0 -0 7.30429e-14)
(0 -0 1.68343e-13)
(0 -0 9.27202e-14)
(0 -0 1.76566e-14)
(0 -0 7.20579e-14)
(0 -0 1.88175e-14)
(0 -0 -7.97574e-15)
(0 -0 6.05779e-14)
(0 -0 3.02118e-14)
(0 -0 -4.35776e-15)
(0 -0 1.38396e-12)
(0 -0 -6.09284e-13)
(0 -0 7.05867e-14)
(0 -0 -7.32986e-14)
(0 -0 -1.01876e-14)
(0 -0 7.37488e-14)
(0 -0 1.09179e-13)
(0 -0 3.51205e-14)
(0 -0 -8.90518e-15)
(0 -0 -6.82388e-15)
(0 -0 -2.86241e-15)
(0 -0 2.04059e-15)
(0 -0 1.17547e-14)
(0 -0 2.9735e-14)
(0 -0 -1.43647e-15)
(0 -0 5.09448e-14)
(0 -0 -9.36699e-15)
(0 -0 2.30683e-15)
(0 -0 3.39886e-15)
(0 -0 6.48935e-15)
(0 -0 -8.08568e-12)
(0 -0 1.14624e-11)
(0 -0 -2.56904e-12)
(0 -0 5.804e-13)
(0 -0 -2.0894e-13)
(0 -0 -3.56969e-14)
(0 -0 -7.48185e-14)
(0 -0 -3.5756e-14)
(0 -0 -5.08851e-14)
(0 -0 1.51218e-14)
(0 -0 -6.30949e-14)
(0 -0 -1.21393e-13)
(0 -0 -8.37004e-15)
(0 -0 -1.29826e-14)
(0 -0 -9.24755e-14)
(0 -0 -6.62151e-14)
(0 -0 -3.58774e-14)
(0 -0 -5.76622e-14)
(0 -0 1.47619e-14)
(0 -0 1.54074e-14)
(0 -0 1.19545e-11)
(0 -0 -1.68538e-11)
(0 -0 3.96088e-12)
(0 -0 -9.11935e-13)
(0 -0 2.8249e-13)
(0 -0 2.14062e-14)
(0 -0 4.96868e-14)
(0 -0 1.61893e-15)
(0 -0 5.8992e-14)
(0 -0 8.45589e-14)
(0 -0 1.12494e-13)
(0 -0 9.15565e-14)
(0 -0 1.01535e-13)
(0 -0 3.96921e-14)
(0 -0 1.19739e-14)
(0 -0 -1.94774e-14)
(0 -0 2.61351e-14)
(0 -0 7.98975e-15)
(0 -0 6.16241e-14)
(0 -0 2.35328e-14)
(0 -0 -7.89582e-12)
(0 -0 1.01755e-11)
(0 -0 -2.50383e-12)
(0 -0 5.61649e-13)
(0 -0 -2.04905e-13)
(0 -0 -6.72029e-14)
(0 -0 -6.43413e-14)
(0 -0 -5.33097e-14)
(0 -0 -8.48998e-14)
(0 -0 -8.70706e-14)
(0 -0 5.81943e-15)
(0 -0 5.99919e-15)
(0 -0 -5.65556e-14)
(0 -0 8.87231e-15)
(0 -0 6.18381e-14)
(0 -0 1.67993e-15)
(0 -0 6.44587e-14)
(0 -0 5.86562e-14)
(0 -0 -6.44109e-14)
(0 -0 -2.47922e-14)
(0 -0 3.06865e-14)
(0 -0 2.58903e-12)
(0 -0 -6.52647e-13)
(0 -0 9.8282e-14)
(0 -0 -6.77996e-14)
(0 -0 -6.29736e-14)
(0 -0 -7.06537e-14)
(0 -0 -5.35988e-14)
(0 -0 -2.00567e-14)
(0 -0 -5.40735e-14)
(0 -0 -7.88617e-14)
(0 -0 -7.93081e-14)
(0 -0 -5.67635e-14)
(0 -0 -5.41509e-14)
(0 -0 -7.29796e-14)
(0 -0 -1.25452e-14)
(0 -0 -5.50649e-14)
(0 -0 -9.70619e-14)
(0 -0 -2.55716e-14)
(0 -0 4.29473e-14)
(0 -0 4.76477e-12)
(0 -0 -1.16395e-11)
(0 -0 2.78479e-12)
(0 -0 -5.52465e-13)
(0 -0 2.33576e-13)
(0 -0 -7.10354e-15)
(0 -0 6.19457e-14)
(0 -0 1.10574e-13)
(0 -0 1.12185e-13)
(0 -0 2.59312e-14)
(0 -0 2.51256e-14)
(0 -0 3.08428e-14)
(0 -0 5.75754e-14)
(0 -0 2.30783e-14)
(0 -0 3.269e-14)
(0 -0 4.26056e-14)
(0 -0 5.45533e-14)
(0 -0 -1.61553e-14)
(0 -0 2.4553e-14)
(0 -0 8.61363e-15)
(0 -0 -3.38559e-12)
(0 -0 5.20563e-12)
(0 -0 -1.29506e-12)
(0 -0 1.96736e-13)
(0 -0 -1.37895e-13)
(0 -0 5.49575e-14)
(0 -0 -2.94872e-14)
(0 -0 -6.08244e-14)
(0 -0 -5.26853e-14)
(0 -0 3.18717e-14)
(0 -0 5.13914e-16)
(0 -0 -9.99552e-16)
(0 -0 -4.64935e-15)
(0 -0 -4.10461e-15)
(0 -0 7.33416e-14)
(0 -0 2.25766e-14)
(0 -0 -5.14598e-15)
(0 -0 1.30854e-14)
(0 -0 -9.33327e-15)
(0 -0 -1.66318e-14)
(0 -0 -5.00371e-12)
(0 -0 7.90214e-12)
(0 -0 -1.64635e-12)
(0 -0 4.49208e-13)
(0 -0 -5.59154e-14)
(0 -0 3.16255e-14)
(0 -0 2.12024e-14)
(0 -0 -4.94071e-15)
(0 -0 1.28115e-15)
(0 -0 4.09489e-15)
(0 -0 2.05639e-16)
(0 -0 -3.33012e-15)
(0 -0 -2.20207e-15)
(0 -0 2.3348e-14)
(0 -0 -4.5766e-14)
(0 -0 1.12779e-14)
(0 -0 -6.4062e-14)
(0 -0 -4.56684e-15)
(0 -0 3.9682e-15)
(0 -0 3.58998e-14)
)
;

boundaryField
{
    movingWall
    {
        type            calculated;
        value           nonuniform List<vector> 
20
(
(0 -0 -1.29407e-11)
(0 -0 1.03515e-11)
(0 -0 -1.55983e-12)
(0 -0 7.77375e-13)
(0 -0 1.83433e-13)
(0 -0 1.64852e-13)
(0 -0 1.27324e-13)
(0 -0 2.17104e-13)
(0 -0 1.78917e-13)
(0 -0 9.29127e-14)
(0 -0 1.77841e-13)
(0 -0 8.54877e-14)
(0 -0 8.66158e-14)
(0 -0 1.2947e-13)
(0 -0 5.28531e-14)
(0 -0 5.56868e-14)
(0 -0 3.4557e-14)
(0 -0 8.4251e-14)
(0 -0 3.9682e-15)
(0 -0 5.32037e-14)
)
;
    }
    fixedWalls
    {
        type            calculated;
        value           nonuniform List<vector> 
60
(
(0 -0 6.69298e-11)
(0 -0 4.39231e-12)
(0 -0 -5.83864e-11)
(0 -0 4.15882e-11)
(0 -0 -7.21593e-14)
(0 -0 -4.12454e-11)
(0 -0 5.46282e-11)
(0 -0 -2.39289e-11)
(0 -0 -2.52454e-11)
(0 -0 5.88988e-11)
(0 -0 -6.55984e-11)
(0 -0 4.26343e-11)
(0 -0 2.05356e-12)
(0 -0 -4.81885e-11)
(0 -0 7.22161e-11)
(0 -0 -4.42518e-11)
(0 -0 -1.13938e-11)
(0 -0 5.00907e-11)
(0 -0 -2.24996e-11)
(0 -0 -3.31628e-11)
(0 -0 6.18709e-15)
(0 -0 1.40442e-15)
(0 -0 -3.81043e-15)
(0 -0 6.08176e-15)
(0 -0 5.39679e-14)
(0 -0 -3.05219e-15)
(0 -0 -4.15917e-14)
(0 -0 9.52609e-15)
(0 -0 -1.65106e-14)
(0 -0 4.04113e-15)
(0 -0 -4.50289e-15)
(0 -0 3.37645e-15)
(0 -0 1.61607e-14)
(0 -0 5.7428e-15)
(0 -0 1.55147e-14)
(0 -0 -7.26311e-15)
(0 -0 4.07351e-14)
(0 -0 8.84194e-16)
(0 -0 1.45205e-15)
(0 -0 4.69982e-14)
(0 -0 2.13286e-11)
(0 -0 -1.88942e-11)
(0 -0 3.36398e-12)
(0 -0 -1.24566e-12)
(0 -0 -1.63674e-13)
(0 -0 -3.82573e-13)
(0 -0 -3.02168e-13)
(0 -0 -2.24946e-13)
(0 -0 -2.17968e-13)
(0 -0 -1.83085e-13)
(0 -0 -5.07664e-14)
(0 -0 -1.70151e-13)
(0 -0 -8.46307e-14)
(0 -0 -5.08621e-15)
(0 -0 -4.45013e-14)
(0 -0 -1.95798e-15)
(0 -0 8.01764e-14)
(0 -0 -3.22711e-17)
(0 -0 -1.12441e-15)
(0 -0 -2.48238e-15)
)
;
    }
    frontAndBack
    {
        type            empty;
    }
}


// ************************************************************************* //
