/*--------------------------------*- C++ -*----------------------------------*\
| =========                 |                                                 |
| \\      /  F ield         | OpenFOAM: The Open Source CFD Toolbox           |
|  \\    /   O peration     | Version:  2506                                  |
|   \\  /    A nd           | Website:  www.openfoam.com                      |
|    \\/     M anipulation  |                                                 |
\*---------------------------------------------------------------------------*/
FoamFile
{
    version     2.0;
    format      ascii;
    arch        "LSB;label=32;scalar=64";
    class       volScalarField;
    location    "9.375";
    object      zeroGradient(epsilon);
}
// * * * * * * * * * * * * * * * * * * * * * * * * * * * * * * * * * * * * * //

dimensions      [0 2 -3 0 0 0 0];

internalField   nonuniform List<scalar> 
400
(
7.4096e-07
7.40959e-07
7.40959e-07
7.40959e-07
7.40958e-07
7.40958e-07
7.40958e-07
7.40958e-07
7.40958e-07
7.40957e-07
7.40958e-07
7.40957e-07
7.40958e-07
7.40957e-07
7.40958e-07
7.40957e-07
7.40957e-07
7.40957e-07
7.40957e-07
7.40957e-07
7.55994e-07
7.48459e-07
7.49103e-07
7.49369e-07
7.49903e-07
7.50172e-07
7.50709e-07
7.50984e-07
7.51522e-07
7.51805e-07
7.52341e-07
7.52633e-07
7.53167e-07
7.53469e-07
7.54001e-07
7.54312e-07
7.54843e-07
7.55163e-07
7.55429e-07
7.55856e-07
7.80589e-07
7.72588e-07
7.73283e-07
7.73569e-07
7.74144e-07
7.74431e-07
7.75008e-07
7.75298e-07
7.75875e-07
7.76172e-07
7.76745e-07
7.77051e-07
7.77619e-07
7.77934e-07
7.78498e-07
7.78821e-07
7.79383e-07
7.79712e-07
7.79993e-07
7.80439e-07
8.07702e-07
7.9933e-07
8.00058e-07
8.00357e-07
8.00958e-07
8.01258e-07
8.01862e-07
8.02166e-07
8.02769e-07
8.0308e-07
8.03679e-07
8.03999e-07
8.04594e-07
8.04923e-07
8.05514e-07
8.05851e-07
8.06439e-07
8.06784e-07
8.07078e-07
8.07544e-07
8.31765e-07
8.23058e-07
8.23814e-07
8.24125e-07
8.2475e-07
8.25062e-07
8.2569e-07
8.26006e-07
8.26633e-07
8.26957e-07
8.2758e-07
8.27913e-07
8.28531e-07
8.28874e-07
8.29488e-07
8.29839e-07
8.3045e-07
8.30809e-07
8.31115e-07
8.316e-07
8.50257e-07
8.41286e-07
8.42065e-07
8.42385e-07
8.43029e-07
8.4335e-07
8.43997e-07
8.44322e-07
8.44969e-07
8.45302e-07
8.45944e-07
8.46287e-07
8.46923e-07
8.47276e-07
8.47909e-07
8.48271e-07
8.489e-07
8.4927e-07
8.49585e-07
8.50085e-07
8.63154e-07
8.53998e-07
8.54792e-07
8.55119e-07
8.55776e-07
8.56104e-07
8.56764e-07
8.57096e-07
8.57755e-07
8.58095e-07
8.5875e-07
8.591e-07
8.5975e-07
8.60111e-07
8.60756e-07
8.61125e-07
8.61768e-07
8.62145e-07
8.62467e-07
8.62977e-07
8.71673e-07
8.62395e-07
8.632e-07
8.63531e-07
8.64196e-07
8.64529e-07
8.65198e-07
8.65534e-07
8.66202e-07
8.66547e-07
8.67211e-07
8.67565e-07
8.68224e-07
8.68589e-07
8.69243e-07
8.69617e-07
8.70269e-07
8.70651e-07
8.70976e-07
8.71493e-07
8.7727e-07
8.6791e-07
8.68722e-07
8.69057e-07
8.69728e-07
8.70063e-07
8.70738e-07
8.71077e-07
8.71751e-07
8.72098e-07
8.72768e-07
8.73126e-07
8.7379e-07
8.74159e-07
8.74818e-07
8.75196e-07
8.75853e-07
8.76238e-07
8.76567e-07
8.77088e-07
8.81143e-07
8.71729e-07
8.72546e-07
8.72882e-07
8.73557e-07
8.73894e-07
8.74573e-07
8.74914e-07
8.75592e-07
8.75942e-07
8.76615e-07
8.76975e-07
8.77643e-07
8.78014e-07
8.78678e-07
8.79057e-07
8.79718e-07
8.80106e-07
8.80437e-07
8.80961e-07
8.84128e-07
8.7467e-07
8.7549e-07
8.75828e-07
8.76506e-07
8.76845e-07
8.77527e-07
8.7787e-07
8.78551e-07
8.78902e-07
8.79578e-07
8.7994e-07
8.80611e-07
8.80984e-07
8.8165e-07
8.82032e-07
8.82696e-07
8.83085e-07
8.83417e-07
8.83944e-07
8.86744e-07
8.77248e-07
8.78072e-07
8.78411e-07
8.79092e-07
8.79432e-07
8.80117e-07
8.80461e-07
8.81144e-07
8.81497e-07
8.82176e-07
8.82539e-07
8.83213e-07
8.83587e-07
8.84256e-07
8.84639e-07
8.85306e-07
8.85697e-07
8.8603e-07
8.86559e-07
8.89298e-07
8.79767e-07
8.80594e-07
8.80934e-07
8.81618e-07
8.8196e-07
8.82647e-07
8.82992e-07
8.83678e-07
8.84032e-07
8.84714e-07
8.85079e-07
8.85755e-07
8.8613e-07
8.86802e-07
8.87187e-07
8.87856e-07
8.88248e-07
8.88583e-07
8.89114e-07
8.91963e-07
8.82393e-07
8.83223e-07
8.83565e-07
8.84251e-07
8.84594e-07
8.85284e-07
8.85631e-07
8.8632e-07
8.86675e-07
8.87359e-07
8.87725e-07
8.88404e-07
8.88781e-07
8.89456e-07
8.89842e-07
8.90513e-07
8.90908e-07
8.91244e-07
8.91777e-07
8.94801e-07
8.85189e-07
8.86023e-07
8.86366e-07
8.87055e-07
8.87399e-07
8.88092e-07
8.8844e-07
8.89132e-07
8.89489e-07
8.90177e-07
8.90544e-07
8.91226e-07
8.91604e-07
8.92282e-07
8.9267e-07
8.93344e-07
8.9374e-07
8.94077e-07
8.94613e-07
8.97777e-07
8.88122e-07
8.8896e-07
8.89304e-07
8.89996e-07
8.90342e-07
8.91038e-07
8.91388e-07
8.92083e-07
8.92441e-07
8.93132e-07
8.93501e-07
8.94186e-07
8.94566e-07
8.95246e-07
8.95636e-07
8.96313e-07
8.96711e-07
8.9705e-07
8.97587e-07
9.00742e-07
8.91047e-07
8.91888e-07
8.92234e-07
8.92929e-07
8.93276e-07
8.93975e-07
8.94326e-07
8.95024e-07
8.95384e-07
8.96078e-07
8.96449e-07
8.97137e-07
8.97518e-07
8.98202e-07
8.98593e-07
8.99273e-07
8.99673e-07
9.00013e-07
9.00553e-07
9.03438e-07
8.93706e-07
8.94549e-07
8.94897e-07
8.95594e-07
8.95943e-07
8.96644e-07
8.96997e-07
8.97697e-07
8.98059e-07
8.98755e-07
8.99127e-07
8.99817e-07
9.00201e-07
9.00886e-07
9.01279e-07
9.01962e-07
9.02363e-07
9.02705e-07
9.03248e-07
9.05516e-07
8.95938e-07
8.96754e-07
8.9709e-07
8.97769e-07
8.98108e-07
8.98792e-07
8.99138e-07
8.99823e-07
9.0018e-07
9.00862e-07
9.01233e-07
9.0191e-07
9.02296e-07
9.0297e-07
9.03368e-07
9.0404e-07
9.0445e-07
9.04787e-07
9.0533e-07
9.06476e-07
9.06476e-07
9.06475e-07
9.06475e-07
9.06475e-07
9.06474e-07
9.06474e-07
9.06474e-07
9.06474e-07
9.06474e-07
9.06474e-07
9.06473e-07
9.06474e-07
9.06473e-07
9.06473e-07
9.06473e-07
9.06473e-07
9.06473e-07
9.06473e-07
9.06473e-07
)
;

boundaryField
{
    movingWall
    {
        type            zeroGradient;
    }
    fixedWalls
    {
        type            zeroGradient;
    }
    frontAndBack
    {
        type            empty;
    }
}


// ************************************************************************* //
