/*--------------------------------*- C++ -*----------------------------------*\
| =========                 |                                                 |
| \\      /  F ield         | OpenFOAM: The Open Source CFD Toolbox           |
|  \\    /   O peration     | Version:  2506                                  |
|   \\  /    A nd           | Website:  www.openfoam.com                      |
|    \\/     M anipulation  |                                                 |
\*---------------------------------------------------------------------------*/
FoamFile
{
    version     2.0;
    format      ascii;
    arch        "LSB;label=32;scalar=64";
    class       volVectorField;
    location    "7.625";
    object      diffU;
}
// * * * * * * * * * * * * * * * * * * * * * * * * * * * * * * * * * * * * * //

dimensions      [0 1 -1 0 0 0 0];

internalField   nonuniform List<vector> 
400
(
(0 0 0)
(-3.10862e-15 -1.89507e-15 0)
(-2.55351e-15 -1.89344e-15 0)
(-3.10862e-15 -1.96393e-15 0)
(-3.21965e-15 -2.11764e-15 0)
(-2.9976e-15 -2.10897e-15 0)
(-3.10862e-15 -2.06363e-15 0)
(-3.10862e-15 -2.06833e-15 0)
(-3.21965e-15 -2.12953e-15 0)
(-3.33067e-15 -2.16486e-15 0)
(-3.21965e-15 -2.14316e-15 0)
(-2.9976e-15 -2.0895e-15 0)
(-3.33067e-15 -2.08667e-15 0)
(-3.21965e-15 -2.05445e-15 0)
(-3.21965e-15 -1.95423e-15 0)
(-3.55271e-15 -1.93551e-15 0)
(-3.66374e-15 -2.11499e-15 0)
(-3.66374e-15 -2.20805e-15 0)
(-3.44169e-15 -2.16105e-15 0)
(-3.88578e-15 -2.07263e-15 0)
(-1.0103e-14 -3.26044e-15 0)
(-3.21965e-15 -1.40976e-15 0)
(-4.77396e-15 -2.0507e-15 0)
(-4.10783e-15 -1.97284e-15 0)
(-4.10783e-15 -2.09091e-15 0)
(-4.10783e-15 -2.07018e-15 0)
(-4.32987e-15 -2.15029e-15 0)
(-4.10783e-15 -2.18049e-15 0)
(-3.88578e-15 -2.08772e-15 0)
(-3.88578e-15 -2.10626e-15 0)
(-4.10783e-15 -2.15894e-15 0)
(-4.10783e-15 -2.10712e-15 0)
(-4.10783e-15 -2.15923e-15 0)
(-4.10783e-15 -2.12747e-15 0)
(-4.10783e-15 -2.091e-15 0)
(-3.66374e-15 -2.01974e-15 0)
(-3.55271e-15 -2.03251e-15 0)
(-3.55271e-15 -2.06809e-15 0)
(-3.88578e-15 -2.1868e-15 0)
(-3.88578e-15 -2.14508e-15 0)
(-2.9976e-15 -4.7433e-15 0)
(-3.33067e-15 -1.38387e-15 0)
(-3.55271e-15 -2.1239e-15 0)
(-3.44169e-15 -2.03522e-15 0)
(-3.55271e-15 -2.04727e-15 0)
(-3.44169e-15 -2.11037e-15 0)
(-3.44169e-15 -2.23314e-15 0)
(-3.33067e-15 -2.19429e-15 0)
(-3.66374e-15 -2.0528e-15 0)
(-3.44169e-15 -2.03831e-15 0)
(-3.55271e-15 -2.14823e-15 0)
(-3.55271e-15 -2.16513e-15 0)
(-3.66374e-15 -2.14673e-15 0)
(-3.66374e-15 -2.11686e-15 0)
(-3.55271e-15 -2.17091e-15 0)
(-4.10783e-15 -2.23053e-15 0)
(-3.88578e-15 -2.1189e-15 0)
(-3.88578e-15 -2.0899e-15 0)
(-3.66374e-15 -2.19829e-15 0)
(-3.66374e-15 -2.24499e-15 0)
(-5.66214e-15 -4.14072e-16 0)
(-2.77556e-15 -2.12177e-15 0)
(-3.21965e-15 -2.00108e-15 0)
(-2.88658e-15 -2.03293e-15 0)
(-2.9976e-15 -2.07276e-15 0)
(-2.77556e-15 -2.08656e-15 0)
(-2.9976e-15 -2.02941e-15 0)
(-3.33067e-15 -2.0135e-15 0)
(-3.44169e-15 -2.18345e-15 0)
(-3.10862e-15 -2.14909e-15 0)
(-3.21965e-15 -2.08652e-15 0)
(-3.55271e-15 -2.11985e-15 0)
(-3.21965e-15 -2.00504e-15 0)
(-3.33067e-15 -1.97751e-15 0)
(-2.9976e-15 -1.93545e-15 0)
(-3.21965e-15 -2.0127e-15 0)
(-3.44169e-15 -2.11924e-15 0)
(-3.55271e-15 -2.16523e-15 0)
(-3.66374e-15 -2.20325e-15 0)
(-3.55271e-15 -2.17909e-15 0)
(-6.99441e-15 -1.81716e-15 0)
(-2.88658e-15 -2.903e-15 0)
(-3.88578e-15 -2.26721e-15 0)
(-3.44169e-15 -2.28401e-15 0)
(-3.33067e-15 -2.18309e-15 0)
(-3.44169e-15 -2.05737e-15 0)
(-3.21965e-15 -1.81076e-15 0)
(-3.33067e-15 -1.78505e-15 0)
(-3.33067e-15 -1.96074e-15 0)
(-3.88578e-15 -2.03523e-15 0)
(-3.88578e-15 -2.0702e-15 0)
(-4.10783e-15 -2.16568e-15 0)
(-4.10783e-15 -2.13616e-15 0)
(-4.10783e-15 -2.1501e-15 0)
(-4.10783e-15 -2.10751e-15 0)
(-3.55271e-15 -2.0952e-15 0)
(-3.66374e-15 -2.02651e-15 0)
(-3.66374e-15 -2.03658e-15 0)
(-3.55271e-15 -2.17216e-15 0)
(-3.66374e-15 -2.14814e-15 0)
(-9.99201e-16 -5.45107e-15 0)
(-3.33067e-15 -1.81131e-15 0)
(-3.21965e-15 -2.30013e-15 0)
(-3.55271e-15 -2.22373e-15 0)
(-3.55271e-15 -2.16905e-15 0)
(-3.66374e-15 -2.01744e-15 0)
(-3.66374e-15 -1.8692e-15 0)
(-3.55271e-15 -1.79836e-15 0)
(-3.88578e-15 -1.82535e-15 0)
(-3.33067e-15 -2.02954e-15 0)
(-3.10862e-15 -2.11179e-15 0)
(-3.44169e-15 -2.14551e-15 0)
(-3.44169e-15 -2.16356e-15 0)
(-3.33067e-15 -2.14147e-15 0)
(-3.44169e-15 -2.08611e-15 0)
(-3.55271e-15 -2.16602e-15 0)
(-4.10783e-15 -2.15643e-15 0)
(-3.55271e-15 -2.1516e-15 0)
(-3.55271e-15 -2.07622e-15 0)
(-3.55271e-15 -2.11198e-15 0)
(-5.21805e-15 -2.32845e-15 0)
(-4.32987e-15 -2.08809e-15 0)
(-4.32987e-15 -2.24526e-15 0)
(-3.88578e-15 -2.12338e-15 0)
(-4.10783e-15 -2.04649e-15 0)
(-3.88578e-15 -1.97826e-15 0)
(-3.88578e-15 -2.02236e-15 0)
(-3.66374e-15 -2.00072e-15 0)
(-3.55271e-15 -2.01789e-15 0)
(-3.44169e-15 -2.11725e-15 0)
(-3.66374e-15 -2.10248e-15 0)
(-3.55271e-15 -2.06235e-15 0)
(-3.55271e-15 -2.00927e-15 0)
(-3.88578e-15 -2.02628e-15 0)
(-3.88578e-15 -2.06662e-15 0)
(-3.44169e-15 -2.0195e-15 0)
(-3.55271e-15 -2.11642e-15 0)
(-3.55271e-15 -2.13533e-15 0)
(-3.88578e-15 -2.04546e-15 0)
(-3.66374e-15 -2.11666e-15 0)
(-6.77236e-15 1.00779e-15 0)
(-3.55271e-15 -2.96463e-15 0)
(-4.55191e-15 -2.02655e-15 0)
(-4.77396e-15 -2.13774e-15 0)
(-4.77396e-15 -2.0886e-15 0)
(-4.55191e-15 -2.11063e-15 0)
(-4.77396e-15 -2.19834e-15 0)
(-4.55191e-15 -2.31512e-15 0)
(-3.88578e-15 -2.22832e-15 0)
(-4.32987e-15 -2.07176e-15 0)
(-4.10783e-15 -2.06052e-15 0)
(-4.10783e-15 -2.04632e-15 0)
(-4.55191e-15 -2.03494e-15 0)
(-4.10783e-15 -2.12594e-15 0)
(-4.10783e-15 -2.14539e-15 0)
(-4.10783e-15 -2.0213e-15 0)
(-4.10783e-15 -2.09655e-15 0)
(-4.10783e-15 -2.21825e-15 0)
(-3.55271e-15 -2.19431e-15 0)
(-3.55271e-15 -2.13003e-15 0)
(-2.33147e-15 -3.11323e-15 0)
(-3.66374e-15 -2.15421e-15 0)
(-3.33067e-15 -2.07854e-15 0)
(-3.33067e-15 -2.14496e-15 0)
(-3.44169e-15 -2.20679e-15 0)
(-3.44169e-15 -2.20501e-15 0)
(-3.21965e-15 -2.26066e-15 0)
(-3.33067e-15 -2.30207e-15 0)
(-3.55271e-15 -2.19619e-15 0)
(-3.66374e-15 -2.06636e-15 0)
(-3.66374e-15 -2.03423e-15 0)
(-3.66374e-15 -2.0137e-15 0)
(-3.66374e-15 -2.1029e-15 0)
(-3.55271e-15 -2.15612e-15 0)
(-3.88578e-15 -2.2223e-15 0)
(-3.88578e-15 -2.26942e-15 0)
(-3.33067e-15 -2.2502e-15 0)
(-3.55271e-15 -2.25305e-15 0)
(-3.66374e-15 -2.18886e-15 0)
(-3.66374e-15 -2.11738e-15 0)
(-5.55112e-16 -5.54587e-15 0)
(-3.66374e-15 -1.34435e-15 0)
(-3.44169e-15 -2.13436e-15 0)
(-3.44169e-15 -2.03609e-15 0)
(-3.44169e-15 -2.07447e-15 0)
(-3.33067e-15 -2.05837e-15 0)
(-3.66374e-15 -2.04437e-15 0)
(-3.55271e-15 -2.03757e-15 0)
(-3.55271e-15 -1.98539e-15 0)
(-3.33067e-15 -1.95795e-15 0)
(-3.44169e-15 -1.95676e-15 0)
(-3.33067e-15 -1.96601e-15 0)
(-3.44169e-15 -2.08678e-15 0)
(-3.21965e-15 -2.21618e-15 0)
(-2.9976e-15 -2.24124e-15 0)
(-3.33067e-15 -2.19568e-15 0)
(-3.66374e-15 -2.10887e-15 0)
(-3.66374e-15 -2.11352e-15 0)
(-3.66374e-15 -2.1532e-15 0)
(-3.66374e-15 -2.19287e-15 0)
(-4.77396e-15 1.48813e-15 0)
(-4.996e-15 -2.65694e-15 0)
(-4.32987e-15 -2.04264e-15 0)
(-4.32987e-15 -2.2208e-15 0)
(-4.32987e-15 -2.24999e-15 0)
(-4.32987e-15 -2.22467e-15 0)
(-4.10783e-15 -2.1918e-15 0)
(-3.88578e-15 -2.25407e-15 0)
(-4.10783e-15 -2.21302e-15 0)
(-4.10783e-15 -2.0862e-15 0)
(-4.10783e-15 -2.00631e-15 0)
(-4.10783e-15 -2.03993e-15 0)
(-3.55271e-15 -2.19276e-15 0)
(-3.88578e-15 -2.27414e-15 0)
(-3.88578e-15 -2.19927e-15 0)
(-3.88578e-15 -2.11573e-15 0)
(-3.88578e-15 -2.1642e-15 0)
(-3.66374e-15 -2.17481e-15 0)
(-3.66374e-15 -2.15221e-15 0)
(-3.44169e-15 -2.20846e-15 0)
(-1.66533e-15 -9.63891e-16 0)
(-2.44249e-15 -2.10746e-15 0)
(-2.55351e-15 -2.1495e-15 0)
(-2.77556e-15 -2.13189e-15 0)
(-2.77556e-15 -2.18519e-15 0)
(-2.9976e-15 -2.17501e-15 0)
(-2.9976e-15 -2.09478e-15 0)
(-3.21965e-15 -2.05586e-15 0)
(-3.33067e-15 -2.10512e-15 0)
(-3.55271e-15 -2.06176e-15 0)
(-3.33067e-15 -2.02991e-15 0)
(-3.33067e-15 -2.1512e-15 0)
(-3.44169e-15 -2.22591e-15 0)
(-3.44169e-15 -2.13661e-15 0)
(-3.88578e-15 -2.18367e-15 0)
(-3.55271e-15 -2.2731e-15 0)
(-3.44169e-15 -2.2778e-15 0)
(-3.66374e-15 -2.18312e-15 0)
(-3.44169e-15 -2.11786e-15 0)
(-3.44169e-15 -2.13468e-15 0)
(-6.32827e-15 -4.42961e-15 0)
(-3.88578e-15 -1.62676e-15 0)
(-4.32987e-15 -2.09556e-15 0)
(-4.10783e-15 -2.03268e-15 0)
(-4.10783e-15 -1.95557e-15 0)
(-4.32987e-15 -2.00316e-15 0)
(-4.32987e-15 -2.0425e-15 0)
(-4.10783e-15 -2.05083e-15 0)
(-4.10783e-15 -2.08032e-15 0)
(-4.10783e-15 -2.10404e-15 0)
(-3.88578e-15 -2.10528e-15 0)
(-3.88578e-15 -2.10377e-15 0)
(-3.88578e-15 -2.08862e-15 0)
(-4.32987e-15 -2.12822e-15 0)
(-4.10783e-15 -2.19765e-15 0)
(-3.88578e-15 -2.1987e-15 0)
(-3.88578e-15 -2.20478e-15 0)
(-4.10783e-15 -2.24882e-15 0)
(-3.88578e-15 -2.26245e-15 0)
(-3.88578e-15 -2.18564e-15 0)
(-1.77636e-15 -1.19179e-15 0)
(-3.55271e-15 -2.64115e-15 0)
(-3.10862e-15 -2.10913e-15 0)
(-3.44169e-15 -2.22121e-15 0)
(-3.21965e-15 -2.04284e-15 0)
(-3.44169e-15 -2.09369e-15 0)
(-3.55271e-15 -2.19785e-15 0)
(-3.44169e-15 -2.19707e-15 0)
(-3.44169e-15 -2.13715e-15 0)
(-3.33067e-15 -2.14613e-15 0)
(-3.44169e-15 -2.08395e-15 0)
(-3.44169e-15 -1.99982e-15 0)
(-3.33067e-15 -2.0463e-15 0)
(-3.33067e-15 -2.14506e-15 0)
(-3.55271e-15 -2.21747e-15 0)
(-3.66374e-15 -2.24851e-15 0)
(-3.55271e-15 -2.23609e-15 0)
(-3.44169e-15 -2.24858e-15 0)
(-3.66374e-15 -2.29743e-15 0)
(-3.66374e-15 -2.2828e-15 0)
(-3.33067e-15 -2.75668e-15 0)
(-4.10783e-15 -1.66771e-15 0)
(-4.10783e-15 -2.08489e-15 0)
(-4.32987e-15 -1.96505e-15 0)
(-4.55191e-15 -2.00079e-15 0)
(-3.88578e-15 -1.98775e-15 0)
(-4.32987e-15 -2.06687e-15 0)
(-4.32987e-15 -2.18284e-15 0)
(-4.10783e-15 -2.16011e-15 0)
(-4.10783e-15 -2.127e-15 0)
(-4.10783e-15 -2.10891e-15 0)
(-3.88578e-15 -2.13599e-15 0)
(-3.66374e-15 -2.10295e-15 0)
(-3.33067e-15 -2.14928e-15 0)
(-3.55271e-15 -2.18196e-15 0)
(-3.21965e-15 -2.23135e-15 0)
(-3.44169e-15 -2.09936e-15 0)
(-3.44169e-15 -2.0707e-15 0)
(-3.55271e-15 -2.15501e-15 0)
(-3.44169e-15 -2.2608e-15 0)
(-7.21645e-15 -1.26013e-15 0)
(-3.33067e-15 -2.41421e-15 0)
(-4.10783e-15 -1.95018e-15 0)
(-3.88578e-15 -2.06545e-15 0)
(-3.66374e-15 -2.13398e-15 0)
(-3.66374e-15 -2.10647e-15 0)
(-3.66374e-15 -2.0846e-15 0)
(-3.66374e-15 -2.14606e-15 0)
(-4.32987e-15 -2.17941e-15 0)
(-4.32987e-15 -2.2632e-15 0)
(-4.10783e-15 -2.37772e-15 0)
(-4.10783e-15 -2.36205e-15 0)
(-3.88578e-15 -2.29002e-15 0)
(-4.10783e-15 -2.28484e-15 0)
(-4.10783e-15 -2.23227e-15 0)
(-4.10783e-15 -2.18882e-15 0)
(-4.10783e-15 -2.15266e-15 0)
(-3.88578e-15 -2.13589e-15 0)
(-3.88578e-15 -2.13469e-15 0)
(-3.44169e-15 -2.19806e-15 0)
(-1.11022e-15 -7.68474e-16 0)
(-4.10783e-15 -2.14729e-15 0)
(-3.44169e-15 -2.01486e-15 0)
(-3.66374e-15 -2.01732e-15 0)
(-3.44169e-15 -2.06785e-15 0)
(-3.33067e-15 -2.07946e-15 0)
(-3.44169e-15 -2.08355e-15 0)
(-3.21965e-15 -1.94173e-15 0)
(-2.9976e-15 -1.92599e-15 0)
(-3.33067e-15 -2.13574e-15 0)
(-3.44169e-15 -2.28258e-15 0)
(-3.66374e-15 -2.17783e-15 0)
(-3.55271e-15 -2.2994e-15 0)
(-3.66374e-15 -2.31453e-15 0)
(-3.66374e-15 -2.30238e-15 0)
(-3.66374e-15 -2.29865e-15 0)
(-3.55271e-15 -2.2896e-15 0)
(-3.44169e-15 -2.19618e-15 0)
(-3.44169e-15 -2.0719e-15 0)
(-3.66374e-15 -2.09478e-15 0)
(-1.12133e-14 -7.41568e-16 0)
(-3.44169e-15 -2.50031e-15 0)
(-4.996e-15 -2.11269e-15 0)
(-3.88578e-15 -2.18214e-15 0)
(-4.32987e-15 -2.08023e-15 0)
(-3.88578e-15 -2.10413e-15 0)
(-3.88578e-15 -2.19529e-15 0)
(-4.10783e-15 -2.19093e-15 0)
(-3.88578e-15 -2.12996e-15 0)
(-3.33067e-15 -2.08079e-15 0)
(-3.88578e-15 -2.10381e-15 0)
(-3.66374e-15 -2.19396e-15 0)
(-3.66374e-15 -2.3176e-15 0)
(-3.55271e-15 -2.3176e-15 0)
(-3.55271e-15 -2.25397e-15 0)
(-3.66374e-15 -2.18302e-15 0)
(-3.88578e-15 -2.13104e-15 0)
(-4.10783e-15 -2.15514e-15 0)
(-3.88578e-15 -2.12841e-15 0)
(-3.55271e-15 -2.06826e-15 0)
(-1.22125e-15 -2.15518e-15 0)
(-4.10783e-15 -2.88145e-15 0)
(-3.33067e-15 -2.17497e-15 0)
(-3.66374e-15 -2.37196e-15 0)
(-3.55271e-15 -2.08635e-15 0)
(-3.66374e-15 -2.08543e-15 0)
(-3.66374e-15 -2.19953e-15 0)
(-3.66374e-15 -2.34559e-15 0)
(-3.66374e-15 -2.34762e-15 0)
(-3.88578e-15 -2.16336e-15 0)
(-3.88578e-15 -2.13945e-15 0)
(-3.66374e-15 -2.32299e-15 0)
(-3.66374e-15 -2.34076e-15 0)
(-3.88578e-15 -2.2443e-15 0)
(-4.10783e-15 -2.18841e-15 0)
(-3.88578e-15 -2.16094e-15 0)
(-3.88578e-15 -2.12261e-15 0)
(-3.55271e-15 -2.18134e-15 0)
(-3.66374e-15 -2.28723e-15 0)
(-3.66374e-15 -2.16004e-15 0)
(2.77556e-15 -2.58128e-15 0)
(-4.32987e-15 -2.12559e-15 0)
(-2.22045e-15 -2.18214e-15 0)
(-3.21965e-15 -2.1553e-15 0)
(-3.10862e-15 -2.02437e-15 0)
(-2.9976e-15 -2.01785e-15 0)
(-2.77556e-15 -2.11008e-15 0)
(-2.66454e-15 -2.18862e-15 0)
(-3.10862e-15 -2.21851e-15 0)
(-2.9976e-15 -2.16952e-15 0)
(-3.10862e-15 -2.16906e-15 0)
(-3.10862e-15 -2.18195e-15 0)
(-3.44169e-15 -2.17504e-15 0)
(-3.33067e-15 -2.14088e-15 0)
(-3.44169e-15 -2.20291e-15 0)
(-3.33067e-15 -2.24467e-15 0)
(-3.66374e-15 -2.19506e-15 0)
(-3.55271e-15 -2.15623e-15 0)
(-3.44169e-15 -2.20408e-15 0)
(-3.33067e-15 -2.16672e-15 0)
)
;

boundaryField
{
    movingWall
    {
        type            calculated;
        value           uniform (-3.66374e-15 -2.13343e-15 0);
    }
    fixedWalls
    {
        type            calculated;
        value           uniform (-3.66374e-15 -2.13343e-15 0);
    }
    frontAndBack
    {
        type            empty;
    }
}


// ************************************************************************* //
