/*--------------------------------*- C++ -*----------------------------------*\
| =========                 |                                                 |
| \\      /  F ield         | OpenFOAM: The Open Source CFD Toolbox           |
|  \\    /   O peration     | Version:  2506                                  |
|   \\  /    A nd           | Website:  www.openfoam.com                      |
|    \\/     M anipulation  |                                                 |
\*---------------------------------------------------------------------------*/
FoamFile
{
    version     2.0;
    format      ascii;
    arch        "LSB;label=32;scalar=64";
    class       volScalarField;
    location    "7.625";
    object      divU;
}
// * * * * * * * * * * * * * * * * * * * * * * * * * * * * * * * * * * * * * //

dimensions      [0 0 -1 0 0 0 0];

internalField   nonuniform List<scalar> 
400
(
5.42101e-13
-1.74847e-13
3.22721e-14
-2.1201e-14
5.83099e-15
3.58761e-14
-2.18112e-14
1.8036e-15
-2.21438e-14
-2.75314e-14
5.06859e-14
-2.00809e-14
2.0959e-15
8.49351e-15
-4.94187e-15
4.05559e-15
-1.51695e-14
2.61779e-14
-3.52045e-14
0
-1.0842e-12
6.0811e-13
-9.91945e-14
5.29857e-14
1.28681e-14
8.63103e-15
-6.58668e-14
4.34178e-14
3.97397e-14
-1.48759e-14
-4.03089e-15
-5.38574e-16
-3.91028e-15
2.25286e-15
4.95339e-16
2.87638e-14
3.86505e-14
-1.62174e-14
-6.60336e-14
5.42101e-14
3.79471e-13
-8.65075e-14
-1.29176e-14
1.98712e-14
1.46832e-14
6.99344e-15
4.31125e-16
5.90659e-15
-2.40441e-14
3.50514e-14
-2.38946e-14
-1.81174e-15
-1.55962e-14
1.72494e-14
-3.81597e-14
2.36318e-15
2.87228e-15
5.53831e-14
-1.34679e-14
-2.71051e-14
1.35525e-13
1.13944e-13
-2.72489e-14
-5.008e-15
-2.60039e-14
1.22936e-14
-1.1541e-14
-7.379e-15
1.2267e-14
6.2464e-14
-4.31962e-14
-1.86639e-15
3.96707e-14
-1.31797e-14
2.23902e-14
-3.83144e-14
1.21108e-14
-4.77051e-14
1.62508e-14
0
-8.13152e-13
3.61831e-13
-8.42584e-14
3.0122e-14
-8.52849e-15
1.92056e-14
3.15849e-14
-1.29697e-14
-6.13256e-15
-3.40009e-14
8.48759e-15
-3.15375e-14
-3.28578e-15
-2.95758e-14
7.32332e-15
5.47742e-14
-1.87136e-14
7.86871e-15
2.89529e-14
-2.71051e-14
2.43945e-13
-1.52989e-13
-7.47509e-16
-8.02575e-15
-2.1973e-14
1.10036e-17
-1.66799e-14
-3.45366e-14
-1.18482e-14
6.62176e-14
5.25881e-15
-2.12054e-14
9.40331e-15
9.91167e-15
-1.56928e-14
-7.31809e-14
-5.99793e-16
7.93084e-14
1.45181e-14
-2.71051e-14
4.33681e-13
-2.43762e-14
8.08205e-14
2.76785e-14
-1.39278e-14
1.77972e-14
3.17212e-14
-3.2003e-14
-2.50406e-14
-1.93203e-14
1.03855e-14
1.58187e-14
-4.84029e-15
-4.27458e-14
5.96944e-14
4.97109e-14
5.38901e-15
-3.5777e-14
-2.43958e-14
0
-3.79471e-13
2.12958e-13
-9.22428e-14
-2.86892e-14
2.4252e-14
-3.1983e-14
-1.92141e-14
1.91772e-14
3.84454e-14
1.28741e-14
1.72113e-14
-6.06307e-14
-1.42035e-14
5.26899e-14
-1.0083e-14
-2.94914e-14
-7.98877e-15
6.66165e-15
6.96839e-14
-2.71051e-14
-5.14996e-13
4.97253e-14
5.396e-15
8.58143e-15
-1.43991e-15
3.47305e-16
5.03932e-14
-7.27803e-15
-1.85767e-14
2.4255e-14
4.82591e-16
1.60989e-15
7.71749e-15
-1.05446e-14
-7.38774e-14
3.43855e-14
4.49893e-14
-3.70754e-14
-7.52028e-15
0
7.58942e-13
-3.25809e-13
3.60902e-14
9.97425e-16
-5.76019e-15
-1.61811e-15
-5.11407e-14
2.46263e-14
3.39497e-14
-4.83426e-15
3.27437e-15
-1.0137e-15
-1.26822e-15
3.18636e-14
-1.73641e-14
-3.15607e-14
-2.7726e-14
-2.14663e-15
-3.85511e-15
0
1.89735e-13
-2.26485e-14
8.87866e-14
-8.58303e-15
-1.68318e-14
-1.32814e-14
5.22385e-14
2.27978e-14
-3.22331e-14
-1.52153e-14
-4.04101e-15
7.57319e-15
3.90293e-14
-4.14941e-14
1.54979e-14
-1.21973e-14
3.66958e-14
-9.10702e-15
2.67839e-14
-2.71051e-14
-2.71051e-13
2.61591e-14
-5.20307e-14
1.02285e-14
1.26102e-14
-1.82357e-14
-1.41466e-14
-1.10879e-14
-1.89627e-14
1.01057e-14
-1.39378e-14
1.1895e-15
2.23379e-14
-2.69021e-14
-1.14461e-14
6.611e-15
5.5325e-15
-1.65083e-14
1.57598e-14
-5.42101e-14
-2.98156e-13
1.3542e-13
6.21622e-15
1.29701e-15
-2.73648e-14
1.70008e-14
2.65115e-15
2.90014e-14
4.93863e-15
1.66943e-15
3.48684e-14
1.63274e-14
-1.39114e-14
-6.41996e-16
1.22787e-14
9.07011e-15
9.70359e-15
4.05064e-15
-2.93016e-14
2.71051e-14
3.52366e-13
-1.39726e-13
3.43892e-14
-1.90448e-14
-4.78177e-15
-8.56353e-15
2.13592e-16
-1.13049e-14
-3.04052e-15
-6.26823e-16
7.40026e-15
-1.39992e-14
1.17613e-14
-2.74802e-15
-4.03618e-14
3.29107e-14
2.02459e-14
2.18626e-14
-1.85573e-14
0
0
-6.28215e-14
2.31799e-14
-3.05742e-14
-1.38963e-14
4.43685e-14
-4.26709e-14
-6.20436e-15
4.69441e-14
-1.23336e-14
-2.19766e-14
5.81979e-14
4.15997e-14
-1.67266e-14
-1.47369e-14
1.17741e-14
1.48355e-15
-2.10779e-14
5.19264e-14
-5.42101e-14
-1.0842e-13
2.41587e-13
-7.82374e-14
1.84088e-14
6.07126e-14
-1.90126e-14
9.87133e-15
-6.34088e-14
-3.80641e-14
-1.32078e-14
4.19715e-14
-1.96962e-16
-5.15021e-15
-3.32516e-14
3.26315e-16
5.0437e-15
9.56477e-15
-6.52083e-15
6.02367e-14
2.71051e-14
2.71051e-13
-2.27809e-13
1.39313e-14
-2.03651e-14
3.89822e-14
8.32653e-15
-1.19756e-15
4.05245e-14
-3.31195e-14
-2.20728e-14
-1.19532e-14
-1.04937e-14
-7.90823e-15
-9.42235e-15
-1.84391e-15
3.27292e-14
3.8832e-14
-8.44642e-15
-2.04501e-14
-2.71051e-14
-8.40257e-13
5.39031e-13
-1.37606e-13
7.96969e-14
1.00279e-14
3.48351e-14
-3.99007e-14
-2.69662e-14
3.31376e-14
2.93753e-14
-7.89552e-14
2.92006e-14
1.50602e-14
-2.3991e-15
9.55253e-15
-7.71029e-15
-2.57839e-14
-3.40669e-14
6.64374e-14
0
0
-1.55333e-13
4.51843e-14
-2.60395e-14
-1.14911e-14
1.63586e-14
-4.27552e-15
3.69889e-16
-5.70324e-14
-6.60181e-15
5.00454e-14
3.29748e-15
2.21119e-15
-3.89367e-14
1.46588e-14
-1.38756e-14
4.91294e-14
-7.0707e-15
4.66033e-15
0
6.23416e-13
-4.06576e-13
1.0842e-13
-5.42101e-14
0
0
2.71051e-14
0
0
0
-2.71051e-14
0
0
0
0
0
0
2.71051e-14
2.71051e-14
-5.42101e-14
)
;

boundaryField
{
    movingWall
    {
        type            extrapolatedCalculated;
        value           nonuniform List<scalar> 
20
(
6.23416e-13
-4.06576e-13
1.0842e-13
-5.42101e-14
0
0
2.71051e-14
0
0
0
-2.71051e-14
0
0
0
0
0
0
2.71051e-14
2.71051e-14
-5.42101e-14
)
;
    }
    fixedWalls
    {
        type            extrapolatedCalculated;
        value           nonuniform List<scalar> 
60
(
5.42101e-13
-1.0842e-12
3.79471e-13
1.35525e-13
-8.13152e-13
2.43945e-13
4.33681e-13
-3.79471e-13
-5.14996e-13
7.58942e-13
1.89735e-13
-2.71051e-13
-2.98156e-13
3.52366e-13
0
-1.0842e-13
2.71051e-13
-8.40257e-13
0
6.23416e-13
0
5.42101e-14
-2.71051e-14
0
-2.71051e-14
-2.71051e-14
0
-2.71051e-14
0
0
-2.71051e-14
-5.42101e-14
2.71051e-14
0
-5.42101e-14
2.71051e-14
-2.71051e-14
0
0
-5.42101e-14
5.42101e-13
-1.74847e-13
3.22721e-14
-2.1201e-14
5.83099e-15
3.58761e-14
-2.18112e-14
1.8036e-15
-2.21438e-14
-2.75314e-14
5.06859e-14
-2.00809e-14
2.0959e-15
8.49351e-15
-4.94187e-15
4.05559e-15
-1.51695e-14
2.61779e-14
-3.52045e-14
0
)
;
    }
    frontAndBack
    {
        type            empty;
    }
}


// ************************************************************************* //
