/*--------------------------------*- C++ -*----------------------------------*\
| =========                 |                                                 |
| \\      /  F ield         | OpenFOAM: The Open Source CFD Toolbox           |
|  \\    /   O peration     | Version:  2506                                  |
|   \\  /    A nd           | Website:  www.openfoam.com                      |
|    \\/     M anipulation  |                                                 |
\*---------------------------------------------------------------------------*/
FoamFile
{
    version     2.0;
    format      ascii;
    arch        "LSB;label=32;scalar=64";
    class       volScalarField;
    location    "7.625";
    object      enstrophyField;
}
// * * * * * * * * * * * * * * * * * * * * * * * * * * * * * * * * * * * * * //

dimensions      [0 0 -2 0 0 0 0];

internalField   nonuniform List<scalar> 
400
(
1.29149e-25
3.66281e-26
2.37121e-29
1.22639e-27
8.65639e-28
2.35534e-28
8.25542e-30
5.67679e-28
6.75575e-28
4.0522e-28
2.83973e-29
2.30168e-28
6.14137e-30
8.76968e-29
7.07403e-29
1.29223e-28
3.71383e-28
1.06071e-29
9.16846e-29
1.29503e-27
3.3236e-26
1.09637e-26
3.12678e-28
8.08297e-30
9.89043e-28
2.84086e-27
9.32227e-28
5.56525e-28
3.93723e-27
1.99656e-28
1.46473e-27
3.30368e-27
1.3611e-27
1.86256e-27
2.11137e-27
1.80353e-27
1.16839e-29
1.19029e-28
2.96388e-29
1.13804e-27
1.92021e-25
2.15759e-26
2.01323e-26
5.07601e-27
1.02303e-26
1.64198e-26
1.03562e-26
6.54355e-28
2.15934e-27
2.03225e-27
7.33288e-27
3.29388e-27
5.3658e-27
3.50562e-27
7.17445e-27
1.20093e-27
9.88836e-29
3.15199e-29
1.20266e-28
1.55625e-28
1.68013e-25
2.26656e-26
6.47582e-28
2.56852e-29
1.43784e-29
9.39482e-30
1.96007e-28
1.18644e-28
8.26772e-28
4.69748e-29
4.50871e-28
4.00186e-27
2.34232e-27
5.80199e-28
2.78138e-28
2.63463e-27
8.97108e-28
3.52835e-29
9.60016e-31
1.21021e-28
1.42162e-25
6.59197e-28
1.91578e-27
1.96078e-27
1.23848e-27
7.02686e-27
3.3164e-27
1.12469e-28
4.26075e-28
9.359e-28
8.5076e-29
1.84873e-27
1.55501e-27
4.10427e-30
5.31214e-28
6.19703e-28
3.79997e-27
8.68182e-28
7.31979e-28
5.26475e-28
1.06806e-25
1.14111e-25
9.99369e-29
2.26583e-27
8.32693e-27
1.62965e-27
2.89698e-27
4.95827e-28
2.67216e-28
3.43242e-27
7.48939e-28
5.21056e-28
5.83372e-27
2.99851e-29
3.01344e-30
2.47243e-29
1.03976e-30
3.21687e-29
4.82569e-28
6.11477e-28
1.6898e-25
3.46031e-29
8.71151e-27
1.2075e-26
1.12556e-26
3.50519e-27
8.88175e-27
5.92596e-27
6.78997e-29
4.99613e-27
6.48771e-27
4.10748e-27
9.67899e-27
2.85617e-27
3.36141e-27
2.44759e-28
6.70841e-29
3.90834e-27
1.74415e-30
1.3828e-28
2.25479e-27
7.4016e-26
9.43369e-31
1.82501e-27
5.58717e-27
6.02137e-29
5.17804e-27
4.53098e-28
2.96121e-28
1.40785e-28
3.23716e-30
3.2719e-30
3.16974e-29
7.27724e-28
5.47467e-29
3.71521e-27
2.73096e-27
4.77907e-29
3.89071e-29
2.28048e-28
2.61708e-25
8.5249e-27
5.77763e-27
1.10039e-26
1.00154e-26
9.92815e-27
6.97682e-27
5.19923e-27
6.24467e-30
4.25265e-27
2.89175e-27
6.64567e-27
7.52308e-27
7.24321e-27
1.07832e-26
3.53688e-27
1.38193e-27
2.8261e-27
9.20336e-29
4.81826e-28
1.69103e-28
1.1361e-25
7.70143e-28
6.54477e-27
5.6383e-27
6.20836e-27
6.10515e-27
1.80649e-27
3.9852e-27
1.62868e-27
3.45822e-28
8.49041e-28
3.12924e-28
6.79738e-29
2.10138e-30
8.76075e-29
1.94855e-27
2.56999e-28
3.1489e-29
1.84002e-28
8.74562e-26
1.19366e-25
2.09992e-27
5.20708e-27
3.3376e-27
1.17083e-27
3.54952e-27
4.27129e-28
7.00223e-28
2.80363e-27
1.07021e-29
1.73824e-28
1.27644e-27
3.49923e-28
7.72041e-27
6.14697e-30
1.74502e-29
7.19187e-31
4.64221e-28
1.57067e-28
3.98132e-26
1.99752e-26
2.98519e-30
4.70435e-28
4.93507e-28
4.08674e-29
7.61275e-28
3.39856e-28
1.74347e-31
2.8279e-29
6.49734e-28
1.92072e-28
1.54951e-27
1.70728e-27
9.05313e-29
4.43066e-29
4.04817e-29
2.4643e-27
5.10367e-28
1.39278e-27
1.60117e-26
4.95242e-26
9.27228e-29
7.49327e-27
1.63379e-27
1.03593e-27
1.22231e-27
1.27148e-27
1.19507e-27
1.60777e-27
3.68072e-28
1.38642e-30
4.36609e-28
5.9439e-29
5.83213e-28
2.54172e-31
1.25609e-29
1.7986e-27
1.99587e-29
1.64227e-28
3.24524e-26
7.04028e-28
1.10854e-28
2.19767e-29
2.24191e-27
2.42987e-27
5.34321e-29
1.8421e-29
1.2975e-29
1.41531e-29
1.07034e-28
7.08788e-30
8.66496e-28
7.87978e-27
4.2008e-27
1.57205e-27
3.6754e-28
1.82068e-27
5.8532e-30
8.95127e-30
1.24622e-25
8.41073e-29
3.09573e-27
6.30637e-28
3.08391e-28
2.1833e-29
1.903e-28
1.58085e-28
3.77573e-27
3.73555e-27
3.23343e-27
3.35472e-27
5.73419e-27
1.07226e-27
2.67245e-27
1.95123e-27
9.31794e-28
1.1832e-27
1.80686e-28
7.45448e-29
1.24171e-26
2.38083e-27
1.07827e-27
4.96961e-27
6.33068e-27
1.21385e-27
3.63583e-27
1.05135e-26
1.08396e-26
1.1015e-27
4.15876e-27
1.68084e-28
1.08065e-27
1.79909e-27
4.61e-29
1.93261e-27
1.77036e-27
1.61495e-30
1.93295e-29
5.67653e-28
1.46712e-25
2.48006e-27
1.10293e-26
1.40443e-29
2.8201e-27
3.26029e-28
8.35497e-28
2.44763e-27
2.70929e-27
1.03794e-26
8.85752e-30
1.56195e-27
8.31299e-28
1.48557e-27
1.38453e-27
1.40092e-27
9.66391e-28
2.3696e-28
5.14085e-29
1.45996e-28
1.22788e-26
1.83021e-26
2.50725e-28
1.65059e-27
3.04234e-29
2.43672e-27
3.76698e-29
1.84481e-27
7.13222e-27
1.61455e-27
9.19912e-28
2.28518e-28
1.08652e-28
2.02404e-29
2.28951e-27
2.21135e-27
1.62438e-27
1.48368e-27
3.7738e-29
2.46323e-29
1.14541e-24
3.14706e-27
2.42222e-26
4.95586e-27
3.18141e-27
7.16867e-27
5.76003e-27
1.57424e-26
4.06779e-27
5.57533e-28
7.73556e-27
2.76334e-27
1.8501e-28
7.045e-29
1.05224e-27
2.79264e-27
1.58201e-27
4.78022e-27
3.1189e-28
6.54088e-28
3.61646e-25
8.57039e-28
1.74404e-26
2.44911e-27
2.30896e-27
1.04146e-27
2.06325e-27
4.76067e-27
1.57476e-27
1.74968e-27
1.40276e-27
1.43715e-27
4.87089e-28
2.95676e-28
5.38671e-29
3.8893e-28
3.91112e-29
3.43309e-28
3.39449e-28
2.08684e-27
)
;

boundaryField
{
    movingWall
    {
        type            calculated;
        value           nonuniform List<scalar> 
20
(
3.20479e-24
2.56601e-26
1.64936e-25
1.87043e-26
2.77984e-26
3.32517e-26
5.71876e-26
7.55973e-26
2.5078e-26
3.68286e-26
2.43767e-26
2.45194e-26
4.31749e-27
8.50722e-27
3.07629e-27
8.97959e-27
3.91112e-29
9.46441e-28
3.85165e-27
1.03135e-26
)
;
    }
    fixedWalls
    {
        type            calculated;
        value           nonuniform List<scalar> 
60
(
6.32163e-25
1.1651e-26
1.0917e-24
5.98767e-25
6.52987e-26
1.10959e-24
1.3432e-25
4.59201e-25
5.15456e-25
6.28355e-25
1.21219e-24
1.98731e-25
4.21795e-25
3.08112e-27
3.52968e-26
8.77551e-27
4.53684e-25
1.86633e-25
1.0444e-24
2.55846e-25
4.46736e-28
1.22766e-27
9.95636e-28
3.9088e-29
5.44193e-28
6.36726e-28
2.07982e-28
4.05079e-28
2.13902e-28
5.53506e-30
4.22876e-30
1.49663e-27
2.18091e-28
5.3273e-28
2.84258e-28
1.40226e-27
6.78236e-29
3.39727e-28
9.48948e-28
2.27997e-27
7.54379e-25
8.46202e-26
1.0169e-25
2.98816e-26
1.84587e-26
3.40742e-26
2.37579e-26
2.61369e-26
1.75385e-26
9.05723e-27
1.44669e-26
3.40093e-26
8.41391e-27
1.35124e-26
1.37351e-26
1.82923e-27
3.71383e-28
1.06071e-29
2.83327e-27
3.65516e-27
)
;
    }
    frontAndBack
    {
        type            empty;
    }
}


// ************************************************************************* //
