/*--------------------------------*- C++ -*----------------------------------*\
| =========                 |                                                 |
| \\      /  F ield         | OpenFOAM: The Open Source CFD Toolbox           |
|  \\    /   O peration     | Version:  2506                                  |
|   \\  /    A nd           | Website:  www.openfoam.com                      |
|    \\/     M anipulation  |                                                 |
\*---------------------------------------------------------------------------*/
FoamFile
{
    version     2.0;
    format      ascii;
    arch        "LSB;label=32;scalar=64";
    class       volScalarField;
    location    "7.625";
    object      epsilonzeroGrad;
}
// * * * * * * * * * * * * * * * * * * * * * * * * * * * * * * * * * * * * * //

dimensions      [0 2 -3 0 0 0 0];

internalField   nonuniform List<scalar> 
400
(
1.60714e-06
1.60714e-06
1.60714e-06
1.60713e-06
1.60713e-06
1.60713e-06
1.60713e-06
1.60713e-06
1.60713e-06
1.60713e-06
1.60713e-06
1.60713e-06
1.60713e-06
1.60713e-06
1.60713e-06
1.60713e-06
1.60713e-06
1.60713e-06
1.60713e-06
1.60713e-06
1.66635e-06
1.64474e-06
1.64657e-06
1.64732e-06
1.64883e-06
1.64961e-06
1.65111e-06
1.65192e-06
1.65343e-06
1.65425e-06
1.65577e-06
1.65661e-06
1.65813e-06
1.65899e-06
1.66052e-06
1.6614e-06
1.66294e-06
1.66383e-06
1.66461e-06
1.66583e-06
1.75866e-06
1.73506e-06
1.73709e-06
1.73792e-06
1.73959e-06
1.74045e-06
1.74211e-06
1.74299e-06
1.74465e-06
1.74554e-06
1.7472e-06
1.74811e-06
1.74978e-06
1.7507e-06
1.75237e-06
1.7533e-06
1.75498e-06
1.75593e-06
1.75677e-06
1.75809e-06
1.85359e-06
1.82827e-06
1.83045e-06
1.83134e-06
1.83312e-06
1.83405e-06
1.83582e-06
1.83677e-06
1.83854e-06
1.83951e-06
1.84129e-06
1.84226e-06
1.84405e-06
1.84504e-06
1.84683e-06
1.84783e-06
1.84963e-06
1.85064e-06
1.85155e-06
1.85296e-06
1.93138e-06
1.90461e-06
1.90692e-06
1.90786e-06
1.90974e-06
1.91072e-06
1.9126e-06
1.9136e-06
1.91547e-06
1.91649e-06
1.91837e-06
1.9194e-06
1.92129e-06
1.92234e-06
1.92423e-06
1.92529e-06
1.92719e-06
1.92826e-06
1.92922e-06
1.93071e-06
1.98659e-06
1.95876e-06
1.96116e-06
1.96213e-06
1.96409e-06
1.96511e-06
1.96706e-06
1.9681e-06
1.97004e-06
1.9711e-06
1.97306e-06
1.97413e-06
1.97609e-06
1.97717e-06
1.97914e-06
1.98024e-06
1.98222e-06
1.98333e-06
1.98433e-06
1.98588e-06
2.02245e-06
1.99394e-06
1.9964e-06
1.99739e-06
1.9994e-06
2.00044e-06
2.00244e-06
2.0035e-06
2.0055e-06
2.00658e-06
2.00858e-06
2.00968e-06
2.01169e-06
2.0128e-06
2.01482e-06
2.01595e-06
2.01797e-06
2.01911e-06
2.02013e-06
2.02172e-06
2.04494e-06
2.016e-06
2.01849e-06
2.0195e-06
2.02154e-06
2.02259e-06
2.02462e-06
2.0257e-06
2.02773e-06
2.02883e-06
2.03086e-06
2.03198e-06
2.03401e-06
2.03514e-06
2.03719e-06
2.03833e-06
2.04039e-06
2.04155e-06
2.04258e-06
2.0442e-06
2.05938e-06
2.03017e-06
2.03268e-06
2.0337e-06
2.03576e-06
2.03682e-06
2.03887e-06
2.03996e-06
2.04201e-06
2.04312e-06
2.04517e-06
2.04629e-06
2.04835e-06
2.04949e-06
2.05156e-06
2.05271e-06
2.05479e-06
2.05596e-06
2.057e-06
2.05863e-06
2.06952e-06
2.04011e-06
2.04264e-06
2.04367e-06
2.04574e-06
2.04681e-06
2.04887e-06
2.04997e-06
2.05203e-06
2.05315e-06
2.05521e-06
2.05635e-06
2.05842e-06
2.05957e-06
2.06165e-06
2.06281e-06
2.0649e-06
2.06607e-06
2.06712e-06
2.06876e-06
2.07767e-06
2.0481e-06
2.05065e-06
2.05168e-06
2.05376e-06
2.05484e-06
2.05691e-06
2.05801e-06
2.06008e-06
2.06121e-06
2.06328e-06
2.06442e-06
2.06651e-06
2.06766e-06
2.06975e-06
2.07092e-06
2.07302e-06
2.0742e-06
2.07526e-06
2.07691e-06
2.08517e-06
2.05546e-06
2.05802e-06
2.05905e-06
2.06114e-06
2.06223e-06
2.06431e-06
2.06542e-06
2.0675e-06
2.06863e-06
2.07071e-06
2.07186e-06
2.07395e-06
2.07511e-06
2.07721e-06
2.07838e-06
2.0805e-06
2.08168e-06
2.08274e-06
2.0844e-06
2.09279e-06
2.06293e-06
2.0655e-06
2.06655e-06
2.06865e-06
2.06973e-06
2.07182e-06
2.07294e-06
2.07503e-06
2.07616e-06
2.07826e-06
2.07941e-06
2.08151e-06
2.08268e-06
2.08479e-06
2.08597e-06
2.08809e-06
2.08928e-06
2.09035e-06
2.09202e-06
2.10098e-06
2.07096e-06
2.07354e-06
2.07459e-06
2.0767e-06
2.0778e-06
2.0799e-06
2.08102e-06
2.08312e-06
2.08426e-06
2.08637e-06
2.08752e-06
2.08964e-06
2.09081e-06
2.09293e-06
2.09412e-06
2.09625e-06
2.09745e-06
2.09852e-06
2.1002e-06
2.10994e-06
2.07976e-06
2.08235e-06
2.08341e-06
2.08553e-06
2.08663e-06
2.08874e-06
2.08987e-06
2.09198e-06
2.09313e-06
2.09525e-06
2.09641e-06
2.09854e-06
2.09971e-06
2.10185e-06
2.10304e-06
2.10519e-06
2.10639e-06
2.10747e-06
2.10915e-06
2.11964e-06
2.08927e-06
2.09188e-06
2.09294e-06
2.09508e-06
2.09618e-06
2.09831e-06
2.09944e-06
2.10157e-06
2.10272e-06
2.10485e-06
2.10602e-06
2.10816e-06
2.10935e-06
2.1115e-06
2.1127e-06
2.11485e-06
2.11607e-06
2.11715e-06
2.11885e-06
2.12965e-06
2.09909e-06
2.10172e-06
2.10278e-06
2.10493e-06
2.10605e-06
2.10819e-06
2.10933e-06
2.11147e-06
2.11263e-06
2.11477e-06
2.11595e-06
2.1181e-06
2.11929e-06
2.12145e-06
2.12266e-06
2.12483e-06
2.12605e-06
2.12715e-06
2.12885e-06
2.13907e-06
2.10834e-06
2.11098e-06
2.11205e-06
2.11421e-06
2.11533e-06
2.11748e-06
2.11863e-06
2.12078e-06
2.12195e-06
2.1241e-06
2.12529e-06
2.12745e-06
2.12865e-06
2.13082e-06
2.13204e-06
2.13422e-06
2.13545e-06
2.13655e-06
2.13826e-06
2.14655e-06
2.11627e-06
2.11883e-06
2.11987e-06
2.12196e-06
2.12306e-06
2.12515e-06
2.12629e-06
2.12839e-06
2.12955e-06
2.13166e-06
2.13284e-06
2.13497e-06
2.13617e-06
2.13831e-06
2.13954e-06
2.1417e-06
2.14295e-06
2.14404e-06
2.14576e-06
2.14997e-06
2.14997e-06
2.14997e-06
2.14997e-06
2.14997e-06
2.14996e-06
2.14997e-06
2.14996e-06
2.14996e-06
2.14996e-06
2.14996e-06
2.14996e-06
2.14996e-06
2.14996e-06
2.14996e-06
2.14996e-06
2.14996e-06
2.14996e-06
2.14996e-06
2.14996e-06
)
;

boundaryField
{
    movingWall
    {
        type            zeroGradient;
    }
    fixedWalls
    {
        type            zeroGradient;
    }
    frontAndBack
    {
        type            empty;
    }
}


// ************************************************************************* //
