/*--------------------------------*- C++ -*----------------------------------*\
| =========                 |                                                 |
| \\      /  F ield         | OpenFOAM: The Open Source CFD Toolbox           |
|  \\    /   O peration     | Version:  2506                                  |
|   \\  /    A nd           | Website:  www.openfoam.com                      |
|    \\/     M anipulation  |                                                 |
\*---------------------------------------------------------------------------*/
FoamFile
{
    version     2.0;
    format      ascii;
    arch        "LSB;label=32;scalar=64";
    class       volScalarField;
    location    "7.625";
    object      flowTypeField;
}
// * * * * * * * * * * * * * * * * * * * * * * * * * * * * * * * * * * * * * //

dimensions      [0 0 0 0 0 0 0];

internalField   nonuniform List<scalar> 
400
(
0.107261
0.216753
0.721115
0.286575
-0.457087
0.401456
0.786771
-0.233445
0.0734581
0.232834
0.808619
0.403105
0.114141
0.142476
0.607625
0.570039
0.288876
0.762018
0.501734
0.0639741
0.627673
0.691041
0.753581
0.88589
0.182983
0.0723966
0.407242
0.413595
-0.0275163
0.454192
0.00160258
0.00460781
0.042621
-0.115974
0.00420605
0.246351
0.753114
0.474516
0.805282
0.354061
-0.120362
0.232487
-0.425449
0.096951
-0.0550651
-0.11373
-0.0571653
0.350627
0.228643
-0.0368559
-0.0772413
0.00195116
0.0791805
-0.0121986
0.0236389
0.0947823
0.134675
0.802681
0.00531776
0.0172437
-0.0467114
0.358504
-0.135082
0.742265
0.545672
0.300116
0.670085
0.717602
-0.359401
0.764664
0.453992
-0.0993428
-0.104101
-0.238187
0.351122
0.0881525
-0.402496
0.791365
0.898741
0.555031
0.275192
0.856734
0.265785
0.19493
-0.541083
-0.444512
-0.217754
0.535343
0.606413
0.400531
0.0171689
0.00345893
0.0127507
0.741552
0.196603
0.53714
-0.0137439
-0.519652
0.0821492
0.160089
-0.0142366
-0.0953968
0.646427
-0.0517779
-0.137286
-0.650024
-0.263934
0.0922159
0.0279951
0.175284
-0.400416
0.177456
0.0103688
0.402862
0.851938
0.875331
0.725406
0.860966
-0.0291088
0.102502
0.3247
0.913821
0.105904
-0.118033
-0.0809953
0.0286301
0.104026
0.10981
0.701189
0.103277
-0.049078
-0.104527
-0.00200641
0.209508
0.151741
0.411199
0.10115
-0.0250104
0.743625
0.377601
0.820051
-0.00782176
0.981791
0.00885307
0.0617785
0.495216
-0.186349
0.496909
0.544853
0.0405583
0.533544
0.919366
0.30164
0.352467
0.383734
-0.011598
-0.301224
0.612507
0.850348
0.39763
0.198201
0.371976
0.0415139
-0.090782
-0.0440221
-0.0387445
-0.0439876
0.10978
0.917696
0.152434
0.0711916
-0.0598599
-0.129039
-0.105152
-0.00093467
0.143306
0.284128
0.216965
0.0401196
-0.108771
0.959619
-0.0390828
0.64073
-0.052184
0.0211802
-0.0274108
0.0861047
0.0156702
-0.0373382
-0.0514034
0.0338037
0.237473
0.0558356
0.758295
0.868673
0.707763
-0.0106542
0.186954
0.081938
0.313149
0.30119
-0.314149
0.48989
-0.241467
0.00439386
0.123719
0.130981
0.217079
0.371208
-0.338958
0.386011
0.447769
0.218859
0.50694
-0.143288
0.486694
0.84939
0.695697
0.192805
0.492925
0.54356
-0.0270607
0.922137
0.0716922
0.315376
0.679232
0.0841906
0.35512
0.941927
0.0244245
-0.217231
0.0464696
-0.00804769
0.230266
0.490766
0.610792
0.0794175
-0.274899
0.18718
0.281957
0.405724
0.00443907
0.739561
-0.123953
0.243384
0.166198
0.101324
0.318303
0.0983047
-0.0326717
0.268318
0.806756
0.272165
0.00280377
0.118506
0.499724
0.192594
-0.0962552
0.585544
0.627315
0.319448
0.726833
0.672809
0.694959
-0.226714
-0.281558
0.0247087
0.500144
0.38576
0.0703873
0.000293603
0.193451
-0.517803
-0.156595
0.0649625
0.073237
0.0641841
-0.0522923
0.821318
0.84816
0.0306298
0.85186
0.278481
0.390501
0.124187
0.827864
0.602188
0.343591
0.107157
-0.0510359
0.0672489
0.29044
0.126244
0.167154
0.100185
-0.142404
-0.444676
0.196446
0.428561
0.746364
0.569926
0.722834
0.554451
-0.146351
0.0709083
0.101422
-0.0480362
0.0904696
0.00705969
-0.709827
0.0820203
0.321252
0.249989
0.0475277
0.32546
-0.134945
0.0638686
0.762035
0.837906
-0.0379445
-0.130967
0.666855
-0.0645432
0.500386
0.12041
0.0564685
-0.323224
0.101895
-0.167843
-0.249854
0.836898
0.105453
-0.476781
-0.00361336
0.0296646
0.119164
0.258172
0.00375998
0.576413
0.525041
0.732063
0.645812
0.770232
0.489915
0.0244668
0.17837
0.643638
0.100008
0.150712
0.0617254
0.510665
0.579272
0.567789
0.277589
-0.211196
-0.0504532
0.249113
0.0961383
0.854771
0.228477
-0.0353908
0.563398
0.20093
0.106448
0.28062
-0.0998689
-0.306851
-0.0906636
0.243032
0.384906
-0.0159239
-0.366052
0.346336
0.758964
0.154981
0.0826404
0.244791
-0.200705
0.10702
0.33655
0.185509
0.887882
0.137612
0.286347
-0.0618782
0.253469
0.242275
0.144776
0.157908
-0.0814147
0.120458
0.163708
0.286942
0.165683
0.311986
0.283042
0.1178
0.293065
0.234241
0.155784
)
;

boundaryField
{
    movingWall
    {
        type            calculated;
        value           nonuniform List<scalar> 
20
(
0.0417324
0.537603
0.022514
0.0140266
-0.0331819
0.0503044
0.0509069
0.0306715
0.0101691
-0.0169961
0.0147826
0.0136133
0.0157078
0.0210497
0.151495
0.0611432
0.58675
0.163055
0.0564377
0.00822265
)
;
    }
    fixedWalls
    {
        type            calculated;
        value           nonuniform List<scalar> 
60
(
0.314638
0.922013
-0.284664
0.0608534
0.706654
0.122563
0.46924
0.420441
0.0901941
0.375625
0.0184773
0.390522
0.31539
0.883939
0.49466
0.881119
0.207929
0.751203
0.161891
0.68281
0.65927
0.475954
0.00284292
0.785259
-0.169047
0.291489
0.242568
0.403187
0.246576
0.859014
0.949278
0.425043
0.714659
0.451302
0.717201
0.410797
0.584141
0.442813
0.204546
0.478978
0.278105
-0.00454271
0.00749312
-0.0210588
-0.0805841
0.0257548
0.0325744
-0.0224147
-0.0414764
0.0141311
0.0816953
0.0280738
0.0352979
0.0874568
0.136417
0.333363
0.272266
0.831929
0.18779
0.0693334
)
;
    }
    frontAndBack
    {
        type            empty;
    }
}


// ************************************************************************* //
