/*--------------------------------*- C++ -*----------------------------------*\
| =========                 |                                                 |
| \\      /  F ield         | OpenFOAM: The Open Source CFD Toolbox           |
|  \\    /   O peration     | Version:  2506                                  |
|   \\  /    A nd           | Website:  www.openfoam.com                      |
|    \\/     M anipulation  |                                                 |
\*---------------------------------------------------------------------------*/
FoamFile
{
    version     2.0;
    format      ascii;
    arch        "LSB;label=32;scalar=64";
    class       surfaceScalarField;
    location    "7.625";
    object      fluxField;
}
// * * * * * * * * * * * * * * * * * * * * * * * * * * * * * * * * * * * * * //

dimensions      [0 3 -1 0 0 0 0];

oriented        oriented;

internalField   nonuniform List<scalar> 
760
(
-5e-05
2.51604e-20
-5e-05
2.40509e-20
-5e-05
8.06802e-21
-5e-05
8.25227e-21
-5e-05
1.45775e-21
-5e-05
2.19276e-21
-5e-05
1.32347e-21
-5e-05
4.50901e-22
-5e-05
1.2403e-21
-5e-05
-1.06597e-22
-5e-05
-8.81055e-22
-5e-05
1.75604e-21
-5e-05
5.23975e-22
-5e-05
2.12338e-21
-5e-05
5.5408e-21
-5e-05
7.79016e-21
-5e-05
2.9839e-21
-5e-05
-2.31779e-22
-5e-05
-2.02485e-21
1.22877e-21
-5e-05
-9.34222e-20
-5e-05
3.68309e-20
-5e-05
2.30643e-21
-5e-05
6.47017e-21
-5e-05
3.21702e-21
-5e-05
2.15776e-21
-5e-05
-2.91418e-21
-5e-05
-2.69808e-21
-5e-05
3.15866e-21
-5e-05
3.05729e-21
-5e-05
-1.00772e-21
-5e-05
-1.34644e-22
-5e-05
-9.77569e-22
-5e-05
5.63216e-22
-5e-05
1.23835e-22
-5e-05
4.14681e-22
-5e-05
2.88635e-21
-5e-05
2.72192e-21
-5e-05
-2.95586e-21
-3.08016e-21
-5e-05
-2.22629e-20
-5e-05
1.90307e-20
-5e-05
3.54687e-21
-5e-05
4.9678e-21
-5e-05
3.6708e-21
-5e-05
1.74836e-21
-5e-05
1.07781e-22
-5e-05
1.47665e-21
-5e-05
7.65239e-22
-5e-05
1.98659e-21
-5e-05
8.02613e-22
-5e-05
-4.52936e-22
-5e-05
2.87723e-21
-5e-05
4.31236e-21
-5e-05
4.0126e-21
-5e-05
5.90794e-22
-5e-05
7.18071e-22
-5e-05
2.93252e-22
-5e-05
-3.36697e-21
-3.93044e-21
-5e-05
5.08907e-20
-5e-05
-1.89477e-20
-5e-05
-3.59508e-23
-5e-05
-1.252e-21
-5e-05
2.75281e-22
-5e-05
3.07339e-21
-5e-05
1.06673e-20
-5e-05
1.17078e-20
-5e-05
3.06674e-21
-5e-05
2.06347e-21
-5e-05
2.75348e-21
-5e-05
-4.66597e-22
-5e-05
3.1414e-21
-5e-05
3.48134e-21
-5e-05
5.59755e-21
-5e-05
3.97392e-21
-5e-05
3.0277e-21
-5e-05
1.62626e-21
-5e-05
-2.71357e-21
-1.50931e-21
-5e-05
-7.50343e-20
-5e-05
-1.11862e-20
-5e-05
-7.51206e-21
-5e-05
-6.02203e-21
-5e-05
-2.13212e-21
-5e-05
4.80139e-21
-5e-05
1.46725e-20
-5e-05
1.70864e-20
-5e-05
1.20194e-20
-5e-05
5.0523e-21
-5e-05
2.1219e-21
-5e-05
-1.1081e-21
-5e-05
-8.21446e-22
-5e-05
-6.17684e-22
-5e-05
1.83083e-21
-5e-05
1.41035e-22
-5e-05
2.09787e-21
-5e-05
1.96718e-21
-5e-05
4.61969e-22
1.68423e-22
-5e-05
-8.78165e-20
-5e-05
9.18648e-21
-5e-05
-6.96314e-21
-5e-05
-2.00644e-21
-5e-05
1.28302e-21
-5e-05
6.77901e-21
-5e-05
9.38254e-21
-5e-05
1.16947e-20
-5e-05
1.05905e-20
-5e-05
3.00188e-21
-5e-05
1.3147e-21
-5e-05
1.47492e-21
-5e-05
2.35083e-21
-5e-05
2.47792e-21
-5e-05
2.85305e-21
-5e-05
2.03357e-21
-5e-05
-1.49948e-22
-5e-05
-5.01689e-22
-5e-05
3.62952e-21
9.55643e-22
-5e-05
7.36551e-20
-5e-05
-1.96466e-20
-5e-05
-1.2366e-22
-5e-05
1.43362e-22
-5e-05
3.29431e-21
-5e-05
4.44929e-21
-5e-05
1.15404e-21
-5e-05
-1.22449e-21
-5e-05
5.16102e-22
-5e-05
1.94618e-21
-5e-05
2.59637e-21
-5e-05
3.95468e-21
-5e-05
5.56619e-21
-5e-05
2.86608e-21
-5e-05
1.37108e-21
-5e-05
5.65146e-21
-5e-05
1.34725e-21
-5e-05
-2.16798e-21
-5e-05
6.77314e-22
5.04257e-22
-5e-05
5.40354e-20
-5e-05
-2.12994e-20
-5e-05
4.04435e-21
-5e-05
-3.96042e-22
-5e-05
-7.13266e-22
-5e-05
-1.21948e-21
-5e-05
-4.80353e-21
-5e-05
-8.75824e-21
-5e-05
-3.94119e-21
-5e-05
3.21852e-21
-5e-05
4.30283e-21
-5e-05
5.17111e-21
-5e-05
3.2254e-21
-5e-05
-3.80049e-22
-5e-05
-2.52076e-21
-5e-05
-5.96592e-22
-5e-05
-1.99719e-21
-5e-05
-5.11085e-21
-5e-05
-2.90783e-21
4.86242e-22
-5e-05
-1.09806e-19
-5e-05
1.92076e-20
-5e-05
1.349e-21
-5e-05
2.14536e-21
-5e-05
-3.59978e-22
-5e-05
8.68263e-23
-5e-05
-9.54238e-22
-5e-05
-1.81951e-21
-5e-05
2.1321e-21
-5e-05
6.06375e-21
-5e-05
6.89691e-21
-5e-05
7.17874e-21
-5e-05
1.92937e-21
-5e-05
-2.63614e-21
-5e-05
-4.91681e-21
-5e-05
-4.95615e-21
-5e-05
-2.3052e-21
-5e-05
-2.49258e-21
-5e-05
-1.88007e-21
-1.08477e-21
-5e-05
5.228e-21
-5e-05
6.6393e-21
-5e-05
2.24629e-21
-5e-05
2.49356e-22
-5e-05
-1.44005e-21
-5e-05
-4.04528e-22
-5e-05
7.67346e-22
-5e-05
-6.19686e-22
-5e-05
1.71116e-21
-5e-05
5.5677e-21
-5e-05
7.59486e-21
-5e-05
6.52284e-21
-5e-05
-3.17054e-22
-5e-05
-5.58664e-21
-5e-05
-4.34102e-21
-5e-05
-1.11391e-21
-5e-05
-1.5523e-22
-5e-05
-5.36657e-22
-5e-05
-9.63777e-22
-3.36194e-21
-5e-05
1.19777e-19
-5e-05
-1.24384e-20
-5e-05
1.86786e-21
-5e-05
-2.14576e-21
-5e-05
-4.20795e-21
-5e-05
-3.32036e-21
-5e-05
-4.92896e-22
-5e-05
-1.07682e-21
-5e-05
-1.282e-21
-5e-05
2.97245e-21
-5e-05
5.76601e-21
-5e-05
1.8933e-21
-5e-05
-3.79521e-21
-5e-05
-3.59727e-21
-5e-05
-2.90179e-21
-5e-05
-3.04933e-21
-5e-05
-4.37859e-21
-5e-05
-2.27675e-21
-5e-05
-8.02953e-23
-1.90711e-21
-5e-05
-2.8166e-20
-5e-05
1.3316e-20
-5e-05
5.44852e-22
-5e-05
2.55712e-21
-5e-05
3.15255e-21
-5e-05
2.21734e-21
-5e-05
3.23961e-21
-5e-05
4.0043e-21
-5e-05
2.0356e-21
-5e-05
2.52642e-21
-5e-05
3.29182e-21
-5e-05
2.97375e-22
-5e-05
-1.19178e-21
-5e-05
5.07434e-23
-5e-05
-2.86153e-21
-5e-05
-5.12351e-21
-5e-05
-5.39314e-21
-5e-05
-4.12706e-21
-5e-05
-2.83632e-21
-1.33659e-21
-5e-05
-3.38635e-20
-5e-05
-2.64155e-23
-5e-05
1.55405e-21
-5e-05
3.24252e-22
-5e-05
6.71132e-21
-5e-05
4.2502e-21
-5e-05
6.62789e-22
-5e-05
4.74078e-22
-5e-05
1.23466e-21
-5e-05
4.17358e-22
-5e-05
1.94084e-21
-5e-05
4.08185e-21
-5e-05
3.29841e-21
-5e-05
-1.60499e-22
-5e-05
-3.7066e-21
-5e-05
-4.50874e-21
-5e-05
-4.35037e-21
-5e-05
-5.7636e-21
-5e-05
-7.3254e-21
-5.03946e-21
-5e-05
7.95963e-21
-5e-05
-1.05008e-21
-5e-05
1.82105e-21
-5e-05
2.01507e-21
-5e-05
5.58082e-21
-5e-05
4.63538e-21
-5e-05
5.33981e-23
-5e-05
-2.82624e-21
-5e-05
-7.60131e-22
-5e-05
-1.56706e-22
-5e-05
1.85006e-21
-5e-05
3.27646e-21
-5e-05
2.94034e-21
-5e-05
-6.87005e-22
-5e-05
-3.31418e-21
-5e-05
-5.32486e-21
-5e-05
-1.7148e-21
-5e-05
-1.31062e-21
-5e-05
-4.63931e-21
-6.91844e-21
-5e-05
6.2512e-21
-5e-05
4.62343e-21
-5e-05
5.79497e-21
-5e-05
5.90898e-21
-5e-05
3.30219e-21
-5e-05
4.31587e-21
-5e-05
2.8848e-21
-5e-05
-1.55109e-21
-5e-05
-1.81649e-21
-5e-05
-3.08341e-21
-5e-05
-5.49414e-21
-5e-05
-5.77932e-21
-5e-05
-3.1526e-21
-5e-05
-4.18166e-21
-5e-05
-3.68422e-21
-5e-05
-3.83274e-21
-5e-05
3.70887e-22
-5e-05
1.50678e-21
-5e-05
-5.70938e-22
-4.80008e-21
-5e-05
5.59564e-20
-5e-05
-7.366e-21
-5e-05
7.5457e-21
-5e-05
4.6022e-21
-5e-05
1.62562e-21
-5e-05
2.02312e-21
-5e-05
2.46783e-21
-5e-05
4.47658e-21
-5e-05
4.03651e-21
-5e-05
-3.30196e-21
-5e-05
-9.83592e-21
-5e-05
-6.8255e-21
-5e-05
-8.06382e-21
-5e-05
-8.3129e-21
-5e-05
-6.69468e-21
-5e-05
-5.51534e-21
-5e-05
-4.38507e-21
-5e-05
-1.63021e-21
-5e-05
1.50666e-21
-6.49649e-22
-5e-05
6.89204e-20
-5e-05
-9.51832e-21
-5e-05
3.48283e-21
-5e-05
1.685e-21
-5e-05
2.9693e-21
-5e-05
2.08163e-21
-5e-05
-2.9939e-22
-5e-05
3.35486e-21
-5e-05
5.27265e-21
-5e-05
1.25805e-21
-5e-05
-2.98829e-21
-5e-05
-2.62341e-21
-5e-05
-8.75332e-21
-5e-05
-9.13185e-21
-5e-05
-7.23724e-21
-5e-05
-5.37024e-21
-5e-05
-3.84453e-21
-5e-05
-2.1116e-21
-5e-05
1.66375e-21
2.59529e-21
-5e-05
3.42529e-20
-5e-05
-2.78726e-20
-5e-05
-5.20106e-22
-5e-05
-7.18082e-21
-5e-05
2.50698e-21
-5e-05
1.93251e-21
-5e-05
-3.19891e-21
-5e-05
-6.74155e-21
-5e-05
-5.26812e-21
-5e-05
5.67562e-22
-5e-05
5.89999e-22
-5e-05
-6.25237e-21
-5e-05
-9.78747e-21
-5e-05
-7.37604e-21
-5e-05
-4.38813e-21
-5e-05
-1.92757e-21
-5e-05
3.30295e-22
-5e-05
-1.74047e-21
-5e-05
-3.71944e-21
9.63816e-22
-5e-05
-1.17399e-20
-5e-05
-1.85046e-20
-5e-05
-2.25644e-21
-5e-05
-6.50988e-21
-5e-05
3.9035e-21
-5e-05
4.08965e-21
-5e-05
-1.06888e-21
-5e-05
-6.68379e-21
-5e-05
-7.48185e-21
-5e-05
-1.65045e-21
-5e-05
-1.04117e-21
-5e-05
-5.95189e-21
-5e-05
-6.22347e-21
-5e-05
-2.95792e-21
-5e-05
-3.11157e-21
-5e-05
-3.4689e-21
-5e-05
-1.27018e-21
-5e-05
-1.76767e-21
-5e-05
-5.61118e-21
-1.49766e-21
-5e-05
-5e-05
-5e-05
-5e-05
-5e-05
-5e-05
-5e-05
-5e-05
-5e-05
-5e-05
-5e-05
-5e-05
-5e-05
-5e-05
-5e-05
-5e-05
-5e-05
-5e-05
-5e-05
)
;

boundaryField
{
    movingWall
    {
        type            calculated;
        value           uniform -0;
    }
    fixedWalls
    {
        type            calculated;
        value           nonuniform List<scalar> 
60
(
5e-05
5e-05
5e-05
5e-05
5e-05
5e-05
5e-05
5e-05
5e-05
5e-05
5e-05
5e-05
5e-05
5e-05
5e-05
5e-05
5e-05
5e-05
5e-05
5e-05
-5e-05
-5e-05
-5e-05
-5e-05
-5e-05
-5e-05
-5e-05
-5e-05
-5e-05
-5e-05
-5e-05
-5e-05
-5e-05
-5e-05
-5e-05
-5e-05
-5e-05
-5e-05
-5e-05
-5e-05
0
0
0
0
0
0
0
0
0
0
0
0
0
0
0
0
0
0
0
0
)
;
    }
    frontAndBack
    {
        type            empty;
    }
}


// ************************************************************************* //
