/*--------------------------------*- C++ -*----------------------------------*\
| =========                 |                                                 |
| \\      /  F ield         | OpenFOAM: The Open Source CFD Toolbox           |
|  \\    /   O peration     | Version:  2506                                  |
|   \\  /    A nd           | Website:  www.openfoam.com                      |
|    \\/     M anipulation  |                                                 |
\*---------------------------------------------------------------------------*/
FoamFile
{
    version     2.0;
    format      ascii;
    arch        "LSB;label=32;scalar=64";
    class       volTensorField;
    location    "7.625";
    object      gradU;
}
// * * * * * * * * * * * * * * * * * * * * * * * * * * * * * * * * * * * * * //

dimensions      [0 0 -1 0 0 0 0];

internalField   nonuniform List<tensor> 
400
(
(4.33681e-13 2.37179e-13 0 -2.71051e-13 1.00642e-13 0 0 0 0)
(-2.71051e-13 -1.89344e-13 0 8.13152e-14 9.62036e-14 0 0 0 0)
(0 -6.88652e-15 0 0 3.22721e-14 0 0 0 0)
(-5.42101e-14 -2.24204e-14 0 2.71051e-14 3.30091e-14 0 0 0 0)
(0 -1.45036e-14 0 2.71051e-14 5.83099e-15 0 0 0 0)
(2.71051e-14 5.40094e-15 0 2.71051e-14 8.77105e-15 0 0 0 0)
(-2.71051e-14 4.06335e-15 0 0 5.2939e-15 0 0 0 0)
(0 -6.59002e-15 0 2.71051e-14 1.8036e-15 0 0 0 0)
(-2.71051e-14 -9.65294e-15 0 2.71051e-14 4.96121e-15 0 0 0 0)
(-2.71051e-14 -1.36319e-15 0 2.71051e-14 -4.26386e-16 0 0 0 0)
(5.42101e-14 7.53621e-15 0 0 -3.52422e-15 0 0 0 0)
(-2.71051e-14 5.64962e-15 0 2.71051e-14 7.02418e-15 0 0 0 0)
(0 3.50467e-15 0 0 2.0959e-15 0 0 0 0)
(0 1.32436e-14 0 0 8.49351e-15 0 0 0 0)
(-2.71051e-14 1.18946e-14 0 0 2.21632e-14 0 0 0 0)
(-2.71051e-14 -1.60763e-14 0 0 3.11606e-14 0 0 0 0)
(-2.71051e-14 -2.72537e-14 0 0 1.19356e-14 0 0 0 0)
(2.71051e-14 -4.6059e-15 0 0 -9.27115e-16 0 0 0 0)
(-2.71051e-14 1.35414e-14 0 0 -8.09941e-15 0 0 0 0)
(0 -3.31745e-15 0 -5.42101e-14 4.91507e-15 0 0 0 0)
(-5.96311e-13 -4.03341e-14 0 -2.98156e-13 -4.7433e-13 0 0 0 0)
(5.69206e-13 1.20974e-13 0 -2.71051e-14 5.11201e-14 0 0 0 0)
(-8.13152e-14 -5.6308e-14 0 -8.13152e-14 -2.30464e-14 0 0 0 0)
(5.42101e-14 -4.02069e-15 0 0 -7.12838e-15 0 0 0 0)
(0 -9.73443e-15 0 -5.42101e-14 7.03708e-15 0 0 0 0)
(0 -5.93803e-15 0 -8.13152e-14 -1.40019e-16 0 0 0 0)
(-5.42101e-14 -1.10308e-14 0 -5.42101e-14 -1.69506e-14 0 0 0 0)
(5.42101e-14 6.25734e-15 0 -2.71051e-14 -1.25959e-14 0 0 0 0)
(2.71051e-14 7.42295e-15 0 -8.13152e-14 7.67341e-15 0 0 0 0)
(-2.71051e-14 -7.12225e-15 0 -2.71051e-14 1.26555e-14 0 0 0 0)
(0 -8.56493e-17 0 -5.42101e-14 -5.06667e-16 0 0 0 0)
(0 -2.95014e-17 0 -8.13152e-14 -7.56275e-15 0 0 0 0)
(0 -2.03534e-15 0 -5.42101e-14 -6.00618e-15 0 0 0 0)
(0 6.82365e-15 0 -5.42101e-14 -6.24065e-15 0 0 0 0)
(2.71051e-14 1.07726e-14 0 -5.42101e-14 -2.16678e-14 0 0 0 0)
(5.42101e-14 5.84867e-15 0 -5.42101e-14 -2.95019e-14 0 0 0 0)
(2.71051e-14 -4.83402e-15 0 0 -3.90182e-16 0 0 0 0)
(-2.71051e-14 -1.54291e-14 0 0 1.18148e-14 0 0 0 0)
(-5.42101e-14 -7.6992e-15 0 0 -3.72404e-15 0 0 0 0)
(5.42101e-14 6.50179e-15 0 5.42101e-14 -1.72357e-14 0 0 0 0)
(8.13152e-14 -1.86031e-13 0 4.33681e-13 2.84637e-13 0 0 0 0)
(-2.71051e-14 2.6194e-13 0 5.42101e-14 -7.12008e-14 0 0 0 0)
(-2.71051e-14 -6.5135e-14 0 1.35525e-13 4.96174e-15 0 0 0 0)
(2.71051e-14 7.66303e-15 0 1.0842e-13 -6.00949e-15 0 0 0 0)
(0 -7.51523e-15 0 1.35525e-13 1.81511e-15 0 0 0 0)
(0 -1.85868e-14 0 1.6263e-13 -1.63758e-15 0 0 0 0)
(0 -8.39255e-15 0 1.35525e-13 1.20878e-14 0 0 0 0)
(0 1.8034e-14 0 5.42101e-14 1.66989e-14 0 0 0 0)
(-2.71051e-14 1.55985e-14 0 8.13152e-14 -9.57367e-15 0 0 0 0)
(2.71051e-14 -9.54326e-15 0 5.42101e-14 -4.28279e-15 0 0 0 0)
(-2.71051e-14 -1.26821e-14 0 1.0842e-13 7.24134e-15 0 0 0 0)
(0 1.5011e-16 0 8.13152e-14 -1.27317e-15 0 0 0 0)
(-2.71051e-14 4.82678e-15 0 1.0842e-13 1.54192e-14 0 0 0 0)
(0 -2.41804e-15 0 8.13152e-14 1.49966e-14 0 0 0 0)
(-5.42101e-14 -1.13667e-14 0 1.0842e-13 1.55551e-14 0 0 0 0)
(0 5.2014e-15 0 5.42101e-14 7.04451e-16 0 0 0 0)
(0 1.4063e-14 0 0 -8.67313e-15 0 0 0 0)
(5.42101e-14 -7.93976e-15 0 0 -9.71467e-15 0 0 0 0)
(0 -1.55091e-14 0 0 -1.64443e-15 0 0 0 0)
(0 1.76423e-14 0 0 -3.40113e-15 0 0 0 0)
(-1.6263e-13 1.73102e-13 0 -4.06576e-13 2.92614e-13 0 0 0 0)
(2.71051e-13 -1.58701e-13 0 5.42101e-14 -1.51914e-13 0 0 0 0)
(0 8.88333e-15 0 -2.71051e-14 -1.43313e-14 0 0 0 0)
(2.71051e-14 -7.16732e-15 0 0 -2.48792e-14 0 0 0 0)
(0 -5.36253e-15 0 0 -1.35821e-14 0 0 0 0)
(0 4.3347e-15 0 0 5.30011e-15 0 0 0 0)
(-5.42101e-14 7.3057e-15 0 2.71051e-14 4.22379e-14 0 0 0 0)
(-5.42101e-14 -1.54042e-14 0 0 4.09245e-14 0 0 0 0)
(0 -1.35587e-14 0 2.71051e-14 9.206e-15 0 0 0 0)
(5.42101e-14 9.69276e-15 0 0 3.07503e-16 0 0 0 0)
(-5.42101e-14 2.92397e-15 0 -2.71051e-14 7.80347e-15 0 0 0 0)
(0 8.14834e-15 0 -8.13152e-14 -5.46413e-17 0 0 0 0)
(2.71051e-14 1.42344e-14 0 -5.42101e-14 1.0567e-15 0 0 0 0)
(0 6.95955e-15 0 -2.71051e-14 -3.32406e-15 0 0 0 0)
(2.71051e-14 -3.51953e-15 0 -2.71051e-14 6.33979e-15 0 0 0 0)
(-5.42101e-14 -1.83795e-14 0 5.42101e-14 1.35325e-14 0 0 0 0)
(0 -1.52531e-14 0 2.71051e-14 9.23853e-15 0 0 0 0)
(-5.42101e-14 -8.40041e-15 0 0 5.33205e-15 0 0 0 0)
(2.71051e-14 -1.38565e-15 0 0 2.61363e-15 0 0 0 0)
(-2.71051e-14 1.15474e-14 0 2.71051e-14 9.68451e-15 0 0 0 0)
(-2.98156e-13 -4.53302e-14 0 4.87891e-13 -5.037e-13 0 0 0 0)
(3.25261e-13 -4.50055e-14 0 -8.13152e-14 3.1046e-14 0 0 0 0)
(-5.42101e-14 6.18996e-14 0 0 -2.99044e-14 0 0 0 0)
(5.42101e-14 8.41224e-15 0 -5.42101e-14 -1.90801e-14 0 0 0 0)
(0 2.26641e-14 0 -2.71051e-14 -9.62962e-15 0 0 0 0)
(0 3.72332e-14 0 -8.13152e-14 6.91202e-15 0 0 0 0)
(2.71051e-14 2.72319e-14 0 -5.42101e-14 1.60209e-14 0 0 0 0)
(-2.71051e-14 -1.49979e-14 0 0 2.15143e-14 0 0 0 0)
(-5.42101e-14 -2.50185e-14 0 -5.42101e-14 3.58106e-14 0 0 0 0)
(-5.42101e-14 -1.09458e-14 0 -5.42101e-14 1.19553e-14 0 0 0 0)
(0 -1.30442e-14 0 0 -2.52634e-15 0 0 0 0)
(-2.71051e-14 -6.59666e-15 0 5.42101e-14 -2.56603e-15 0 0 0 0)
(0 1.55736e-15 0 -5.42101e-14 -1.58514e-14 0 0 0 0)
(0 2.86506e-15 0 0 -1.63961e-14 0 0 0 0)
(2.71051e-14 5.48985e-15 0 -2.71051e-14 -1.50669e-14 0 0 0 0)
(8.13152e-14 8.10014e-15 0 -2.71051e-14 -1.53315e-14 0 0 0 0)
(-2.71051e-14 5.86252e-15 0 -8.13152e-14 -3.71933e-15 0 0 0 0)
(0 -1.45647e-14 0 2.71051e-14 1.36366e-15 0 0 0 0)
(2.71051e-14 -1.11566e-14 0 2.71051e-14 1.27021e-14 0 0 0 0)
(-2.71051e-14 5.34415e-15 0 -2.71051e-14 6.71093e-15 0 0 0 0)
(2.98156e-13 -2.99552e-13 0 1.6263e-13 -5.11288e-14 0 0 0 0)
(-2.43945e-13 3.15095e-13 0 -1.6263e-13 8.14909e-14 0 0 0 0)
(0 -4.12427e-14 0 -2.71051e-14 2.19568e-15 0 0 0 0)
(-2.71051e-14 1.31075e-14 0 -5.42101e-14 1.60624e-14 0 0 0 0)
(-2.71051e-14 2.06296e-14 0 -1.0842e-13 1.36606e-14 0 0 0 0)
(0 2.99852e-14 0 -2.71051e-14 7.91049e-15 0 0 0 0)
(0 2.1908e-14 0 -5.42101e-14 -2.11598e-14 0 0 0 0)
(0 4.38549e-15 0 -2.71051e-14 -2.15668e-14 0 0 0 0)
(0 -2.31178e-14 0 0 -5.7156e-15 0 0 0 0)
(8.13152e-14 -2.86442e-14 0 5.42101e-14 -8.20166e-15 0 0 0 0)
(0 -1.15974e-14 0 2.71051e-14 -3.22878e-15 0 0 0 0)
(-2.71051e-14 -5.17671e-15 0 2.71051e-14 1.03321e-14 0 0 0 0)
(0 4.04312e-16 0 1.0842e-13 1.26891e-14 0 0 0 0)
(0 7.74405e-15 0 0 1.23824e-14 0 0 0 0)
(-2.71051e-14 -2.45497e-15 0 0 4.08889e-15 0 0 0 0)
(-8.13152e-14 -7.03198e-15 0 0 7.57015e-15 0 0 0 0)
(0 1.44205e-15 0 0 -8.99127e-15 0 0 0 0)
(8.13152e-14 8.02106e-15 0 0 -9.87547e-15 0 0 0 0)
(0 3.96163e-15 0 -2.71051e-14 1.26702e-14 0 0 0 0)
(-2.71051e-14 -7.86572e-15 0 2.71051e-14 3.14888e-15 0 0 0 0)
(-2.1684e-13 -1.49681e-14 0 -5.96311e-13 6.45887e-13 0 0 0 0)
(8.13152e-14 8.31902e-15 0 0 -1.15332e-13 0 0 0 0)
(5.42101e-14 -3.52895e-15 0 -1.35525e-13 2.73579e-14 0 0 0 0)
(2.71051e-14 1.98771e-14 0 -1.35525e-13 8.5992e-15 0 0 0 0)
(-2.71051e-14 1.45122e-14 0 -1.35525e-13 8.04516e-15 0 0 0 0)
(2.71051e-14 2.41284e-15 0 -8.13152e-14 -9.31888e-15 0 0 0 0)
(5.42101e-14 -2.24548e-15 0 -1.35525e-13 -3.2914e-14 0 0 0 0)
(2.71051e-14 4.46291e-16 0 -1.0842e-13 -5.16766e-14 0 0 0 0)
(2.71051e-14 -1.16533e-14 0 0 -4.02975e-14 0 0 0 0)
(-2.71051e-14 -8.45897e-15 0 -1.0842e-13 -4.22279e-15 0 0 0 0)
(0 5.48953e-15 0 -1.0842e-13 5.12666e-15 0 0 0 0)
(0 9.32121e-15 0 -8.13152e-14 9.91904e-15 0 0 0 0)
(-2.71051e-14 3.60768e-15 0 -1.35525e-13 1.28615e-14 0 0 0 0)
(-5.42101e-14 -5.73515e-15 0 -8.13152e-14 1.55265e-15 0 0 0 0)
(5.42101e-14 6.77589e-16 0 -8.13152e-14 -5.92788e-15 0 0 0 0)
(2.71051e-14 -4.98002e-15 0 -2.71051e-14 1.44715e-14 0 0 0 0)
(0 -1.15831e-14 0 0 5.9888e-15 0 0 0 0)
(-2.71051e-14 7.09682e-15 0 -8.13152e-14 -6.66515e-15 0 0 0 0)
(0 1.8677e-15 0 0 -1.18088e-14 0 0 0 0)
(0 -1.04749e-14 0 -2.71051e-14 -1.80554e-15 0 0 0 0)
(-2.98156e-13 2.31002e-13 0 2.98156e-13 -7.84787e-14 0 0 0 0)
(2.1684e-13 -3.03434e-13 0 8.13152e-14 -6.61144e-15 0 0 0 0)
(-1.0842e-13 8.26887e-14 0 8.13152e-14 1.6672e-14 0 0 0 0)
(-2.71051e-14 -6.20525e-15 0 5.42101e-14 -2.15762e-15 0 0 0 0)
(2.71051e-14 2.71151e-15 0 1.0842e-13 -1.60303e-14 0 0 0 0)
(0 -1.09739e-14 0 0 -2.26751e-14 0 0 0 0)
(0 -2.04497e-14 0 8.13152e-14 -2.38303e-14 0 0 0 0)
(5.42101e-14 -2.99803e-15 0 2.71051e-14 -3.0135e-14 0 0 0 0)
(5.42101e-14 2.4336e-14 0 0 -1.78292e-14 0 0 0 0)
(0 1.678e-14 0 0 5.08936e-15 0 0 0 0)
(0 2.54447e-15 0 0 6.82586e-15 0 0 0 0)
(-5.42101e-14 2.55808e-15 0 0 4.86571e-15 0 0 0 0)
(0 -7.96208e-15 0 0 -9.36317e-15 0 0 0 0)
(5.42101e-14 -1.10453e-14 0 2.71051e-14 -1.29845e-14 0 0 0 0)
(0 1.04639e-14 0 0 -1.55674e-14 0 0 0 0)
(0 4.88471e-15 0 -8.13152e-14 -2.49922e-14 0 0 0 0)
(0 -1.96946e-14 0 5.42101e-14 -1.33778e-14 0 0 0 0)
(2.71051e-14 -9.77657e-15 0 0 -1.17715e-14 0 0 0 0)
(8.13152e-14 8.82123e-15 0 0 -1.43406e-14 0 0 0 0)
(-2.71051e-14 5.74865e-15 0 2.71051e-14 -7.20625e-17 0 0 0 0)
(1.35525e-13 -1.00058e-13 0 6.23416e-13 -6.55366e-13 0 0 0 0)
(-1.0842e-13 1.0347e-13 0 -2.71051e-14 1.62028e-13 0 0 0 0)
(2.71051e-14 9.24867e-16 0 1.0842e-13 -1.07814e-14 0 0 0 0)
(0 -1.28252e-14 0 1.35525e-13 1.01656e-14 0 0 0 0)
(0 -6.00528e-15 0 1.35525e-13 1.41315e-15 0 0 0 0)
(0 -5.38713e-15 0 1.35525e-13 5.22524e-15 0 0 0 0)
(2.71051e-14 -9.70534e-15 0 1.0842e-13 1.53972e-14 0 0 0 0)
(-2.71051e-14 6.44742e-15 0 1.0842e-13 2.77549e-14 0 0 0 0)
(-5.42101e-14 2.3571e-14 0 2.71051e-14 2.42931e-14 0 0 0 0)
(0 1.6196e-14 0 1.0842e-13 1.13809e-14 0 0 0 0)
(0 5.26588e-15 0 8.13152e-14 1.03763e-14 0 0 0 0)
(0 -6.86782e-15 0 1.0842e-13 8.03051e-15 0 0 0 0)
(0 -1.42425e-14 0 1.0842e-13 -5.1841e-15 0 0 0 0)
(0 -1.19393e-14 0 1.0842e-13 -9.02437e-15 0 0 0 0)
(-5.42101e-14 -1.13301e-14 0 1.35525e-13 -9.58421e-15 0 0 0 0)
(5.42101e-14 -2.79044e-15 0 8.13152e-14 -1.74382e-14 0 0 0 0)
(5.42101e-14 1.6376e-15 0 5.42101e-14 -1.23203e-15 0 0 0 0)
(-5.42101e-14 6.13403e-15 0 8.13152e-14 1.04731e-14 0 0 0 0)
(0 1.35671e-14 0 0 4.11103e-15 0 0 0 0)
(0 3.93769e-15 0 -2.71051e-14 -6.28403e-15 0 0 0 0)
(2.98156e-13 -2.62336e-13 0 -2.43945e-13 4.60136e-13 0 0 0 0)
(-2.71051e-13 3.41151e-13 0 -1.35525e-13 -5.02731e-14 0 0 0 0)
(2.71051e-14 -6.91737e-14 0 -1.0842e-13 3.58918e-15 0 0 0 0)
(0 5.9893e-15 0 -1.0842e-13 -7.58401e-15 0 0 0 0)
(0 -2.22885e-15 0 -1.0842e-13 -4.32028e-15 0 0 0 0)
(0 3.01009e-15 0 -1.0842e-13 -1.96542e-15 0 0 0 0)
(-5.42101e-14 2.08001e-15 0 -1.0842e-13 6.88634e-15 0 0 0 0)
(2.71051e-14 5.89792e-15 0 -5.42101e-14 4.79928e-15 0 0 0 0)
(2.71051e-14 7.96198e-15 0 -8.13152e-14 -1.68373e-15 0 0 0 0)
(0 2.86321e-15 0 -5.42101e-14 -1.98418e-15 0 0 0 0)
(0 -8.0592e-16 0 -2.71051e-14 2.79178e-15 0 0 0 0)
(0 -1.30023e-14 0 -5.42101e-14 -2.62359e-15 0 0 0 0)
(0 -2.5017e-14 0 0 -8.98571e-15 0 0 0 0)
(5.42101e-14 -1.54454e-14 0 -2.71051e-14 -1.1802e-14 0 0 0 0)
(-2.71051e-14 2.05007e-15 0 0 2.30317e-15 0 0 0 0)
(-5.42101e-14 1.32369e-14 0 0 1.5369e-14 0 0 0 0)
(-2.71051e-14 8.21666e-15 0 -5.42101e-14 8.59988e-15 0 0 0 0)
(0 -4.43351e-15 0 -2.71051e-14 7.8237e-15 0 0 0 0)
(0 -7.93587e-15 0 0 3.66517e-15 0 0 0 0)
(0 7.92165e-15 0 2.71051e-14 -9.10872e-15 0 0 0 0)
(-2.71051e-13 3.09805e-13 0 -1.0842e-13 4.58198e-13 0 0 0 0)
(5.42101e-14 -3.53077e-13 0 1.35525e-13 -7.63108e-14 0 0 0 0)
(8.13152e-14 4.3614e-14 0 1.0842e-13 -1.51375e-15 0 0 0 0)
(0 -2.07347e-14 0 8.13152e-14 -9.58046e-15 0 0 0 0)
(0 -3.8669e-16 0 8.13152e-14 -1.10716e-14 0 0 0 0)
(0 5.81949e-15 0 5.42101e-14 -1.16633e-14 0 0 0 0)
(5.42101e-14 -2.94064e-15 0 8.13152e-14 -5.04097e-15 0 0 0 0)
(2.71051e-14 -2.12265e-15 0 2.71051e-14 -1.82852e-15 0 0 0 0)
(-2.71051e-14 1.67876e-14 0 5.42101e-14 -1.19727e-14 0 0 0 0)
(0 2.06716e-14 0 -5.42101e-14 -1.0381e-14 0 0 0 0)
(0 4.62647e-15 0 0 -7.31538e-15 0 0 0 0)
(2.71051e-14 -1.86453e-14 0 0 -1.85182e-14 0 0 0 0)
(5.42101e-14 -2.34209e-14 0 2.71051e-14 -1.39126e-14 0 0 0 0)
(-5.42101e-14 -6.50463e-16 0 -2.71051e-14 7.95748e-15 0 0 0 0)
(0 1.58409e-14 0 -1.0842e-13 5.75691e-15 0 0 0 0)
(0 3.50627e-15 0 0 -7.74169e-15 0 0 0 0)
(5.42101e-14 -5.90766e-15 0 0 -1.68934e-14 0 0 0 0)
(0 1.19932e-15 0 0 -6.96039e-15 0 0 0 0)
(2.71051e-14 -3.36528e-15 0 2.71051e-14 3.53393e-15 0 0 0 0)
(-2.71051e-14 9.38124e-15 0 2.71051e-14 5.81934e-15 0 0 0 0)
(3.25261e-13 1.19551e-13 0 -1.6263e-13 -5.91774e-13 0 0 0 0)
(-8.13152e-14 -1.18561e-13 0 8.13152e-14 1.03018e-13 0 0 0 0)
(-5.42101e-14 -2.44343e-15 0 0 -5.29202e-15 0 0 0 0)
(0 -3.56856e-15 0 2.71051e-14 1.88115e-14 0 0 0 0)
(-2.71051e-14 -4.31172e-15 0 2.71051e-14 2.9442e-14 0 0 0 0)
(-2.71051e-14 9.04073e-15 0 0 2.21508e-14 0 0 0 0)
(-2.71051e-14 1.19148e-14 0 -2.71051e-14 1.493e-14 0 0 0 0)
(-2.71051e-14 -1.03378e-15 0 -2.71051e-14 2.03244e-14 0 0 0 0)
(-2.71051e-14 -5.90504e-16 0 0 1.32704e-14 0 0 0 0)
(0 7.5205e-15 0 0 -1.78412e-15 0 0 0 0)
(0 -8.94308e-15 0 2.71051e-14 -9.89678e-15 0 0 0 0)
(0 -1.95996e-14 0 0 -6.38369e-15 0 0 0 0)
(0 1.45868e-15 0 -5.42101e-14 1.04137e-14 0 0 0 0)
(-5.42101e-14 4.22415e-15 0 -5.42101e-14 1.4592e-14 0 0 0 0)
(0 -1.36491e-14 0 -2.71051e-14 1.61057e-16 0 0 0 0)
(2.71051e-14 -9.41346e-15 0 0 -8.29673e-15 0 0 0 0)
(0 8.99796e-15 0 0 -4.0582e-15 0 0 0 0)
(0 1.59939e-14 0 -5.42101e-14 -7.40124e-15 0 0 0 0)
(2.71051e-14 4.84386e-15 0 -2.71051e-14 -1.10241e-14 0 0 0 0)
(-5.42101e-14 -1.43162e-15 0 -5.42101e-14 2.28206e-15 0 0 0 0)
(-2.71051e-13 -1.78951e-13 0 0 -2.279e-14 0 0 0 0)
(1.89735e-13 2.33404e-13 0 -8.13152e-14 -5.33699e-14 0 0 0 0)
(0 -4.05923e-14 0 -5.42101e-14 4.03681e-15 0 0 0 0)
(0 1.39993e-14 0 -1.0842e-13 -8.93148e-15 0 0 0 0)
(-5.42101e-14 2.95257e-15 0 -5.42101e-14 1.42351e-14 0 0 0 0)
(0 -8.69248e-15 0 -5.42101e-14 8.13147e-15 0 0 0 0)
(0 -4.76698e-15 0 -5.42101e-14 -1.03073e-14 0 0 0 0)
(5.42101e-14 -3.78228e-15 0 -5.42101e-14 -1.41209e-14 0 0 0 0)
(0 -5.321e-15 0 -5.42101e-14 -3.20375e-15 0 0 0 0)
(0 -2.49562e-15 0 5.42101e-14 -8.43624e-15 0 0 0 0)
(2.71051e-14 2.69045e-17 0 -2.71051e-14 -5.40389e-15 0 0 0 0)
(0 1.66519e-15 0 0 1.51379e-14 0 0 0 0)
(-2.71051e-14 -2.44521e-15 0 2.71051e-14 1.79608e-14 0 0 0 0)
(0 -1.09031e-14 0 0 -8.44969e-16 0 0 0 0)
(2.71051e-14 -7.04792e-15 0 2.71051e-14 -3.38028e-15 0 0 0 0)
(0 -7.12982e-16 0 0 2.4591e-15 0 0 0 0)
(0 -5.01217e-15 0 0 4.17108e-15 0 0 0 0)
(0 -5.76659e-15 0 5.42101e-14 -6.54616e-15 0 0 0 0)
(0 6.31802e-15 0 0 -1.79563e-14 0 0 0 0)
(5.42101e-14 1.81233e-14 0 0 -1.48115e-14 0 0 0 0)
(1.89735e-13 4.33914e-14 0 2.98156e-13 1.67292e-13 0 0 0 0)
(-1.35525e-13 -9.17342e-14 0 -5.42101e-14 -4.09466e-15 0 0 0 0)
(2.71051e-14 4.19949e-14 0 2.71051e-14 1.06797e-15 0 0 0 0)
(-2.71051e-14 6.62974e-15 0 0 6.76326e-15 0 0 0 0)
(0 1.27512e-14 0 -5.42101e-14 -4.52201e-15 0 0 0 0)
(0 -1.55017e-14 0 5.42101e-14 1.54071e-15 0 0 0 0)
(0 -1.03375e-14 0 0 -2.43756e-15 0 0 0 0)
(0 6.06976e-15 0 0 -1.32013e-14 0 0 0 0)
(0 5.09412e-15 0 0 -7.97915e-15 0 0 0 0)
(0 5.32036e-15 0 0 -2.29626e-15 0 0 0 0)
(0 1.4631e-14 0 0 -3.6312e-16 0 0 0 0)
(0 3.76507e-15 0 0 -3.22155e-15 0 0 0 0)
(0 -1.45242e-14 0 2.71051e-14 -1.43228e-15 0 0 0 0)
(0 -1.71169e-14 0 1.0842e-13 -2.10602e-15 0 0 0 0)
(-5.42101e-14 -1.0345e-14 0 8.13152e-14 1.56968e-15 0 0 0 0)
(2.71051e-14 -1.86209e-15 0 5.42101e-14 -3.26448e-15 0 0 0 0)
(0 -7.29985e-18 0 2.71051e-14 1.05423e-14 0 0 0 0)
(0 -6.13356e-15 0 5.42101e-14 1.78119e-14 0 0 0 0)
(-2.71051e-14 -3.42146e-15 0 0 1.07444e-14 0 0 0 0)
(0 3.13362e-14 0 2.71051e-14 -7.51591e-15 0 0 0 0)
(0 -1.57532e-14 0 -5.14996e-13 -6.83371e-15 0 0 0 0)
(-8.13152e-14 6.71799e-14 0 5.42101e-14 2.2694e-14 0 0 0 0)
(0 -2.97344e-14 0 -1.0842e-13 1.58957e-14 0 0 0 0)
(-5.42101e-14 8.40936e-15 0 -2.71051e-14 1.55756e-14 0 0 0 0)
(0 -2.26997e-15 0 -2.71051e-14 -9.11451e-15 0 0 0 0)
(5.42101e-14 -6.60803e-15 0 0 -1.27805e-15 0 0 0 0)
(-5.42101e-14 -1.9509e-14 0 0 1.13256e-14 0 0 0 0)
(0 -9.32387e-15 0 -2.71051e-14 5.10059e-15 0 0 0 0)
(5.42101e-14 5.584e-15 0 -8.13152e-14 -4.22544e-15 0 0 0 0)
(0 5.12042e-15 0 -8.13152e-14 -1.17068e-14 0 0 0 0)
(0 -8.98393e-16 0 -8.13152e-14 -2.93768e-14 0 0 0 0)
(8.13152e-14 5.96021e-16 0 -8.13152e-14 -3.62231e-14 0 0 0 0)
(5.42101e-14 -1.32968e-15 0 -1.0842e-13 -2.43717e-14 0 0 0 0)
(0 -7.90116e-15 0 -5.42101e-14 -1.39786e-14 0 0 0 0)
(0 -8.20638e-15 0 -8.13152e-14 -1.48017e-15 0 0 0 0)
(0 8.2596e-15 0 -5.42101e-14 5.96849e-15 0 0 0 0)
(0 1.60642e-14 0 -2.71051e-14 8.34275e-15 0 0 0 0)
(-2.71051e-14 -5.56449e-15 0 -5.42101e-14 1.12696e-14 0 0 0 0)
(2.71051e-14 -1.90098e-14 0 0 1.62735e-14 0 0 0 0)
(-5.42101e-14 1.48948e-14 0 2.71051e-14 8.47345e-15 0 0 0 0)
(-2.98156e-13 5.92517e-14 0 2.1684e-13 1.98821e-13 0 0 0 0)
(2.98156e-13 -6.90048e-14 0 0 -4.79577e-14 0 0 0 0)
(-8.13152e-14 3.48766e-14 0 8.13152e-14 7.00293e-15 0 0 0 0)
(2.71051e-14 -1.83805e-14 0 8.13152e-14 -5.2271e-15 0 0 0 0)
(5.42101e-14 -4.10246e-15 0 1.0842e-13 -6.70629e-15 0 0 0 0)
(0 4.93845e-15 0 5.42101e-14 -9.17101e-15 0 0 0 0)
(0 -3.95888e-15 0 8.13152e-14 -1.66787e-15 0 0 0 0)
(-8.13152e-14 -9.48129e-15 0 1.35525e-13 2.41107e-14 0 0 0 0)
(-5.42101e-14 -1.17133e-14 0 1.35525e-13 2.3412e-14 0 0 0 0)
(0 -1.9831e-14 0 2.71051e-14 -8.74192e-16 0 0 0 0)
(5.42101e-14 -9.88526e-15 0 8.13152e-14 -1.73671e-14 0 0 0 0)
(0 8.77015e-15 0 2.71051e-14 -4.18472e-15 0 0 0 0)
(2.71051e-14 7.72033e-15 0 5.42101e-14 -1.96449e-14 0 0 0 0)
(-2.71051e-14 5.77466e-15 0 -5.42101e-14 -1.6525e-14 0 0 0 0)
(0 9.60208e-15 0 0 -1.20419e-14 0 0 0 0)
(0 7.96083e-15 0 -5.42101e-14 -6.73041e-15 0 0 0 0)
(2.71051e-14 5.29384e-15 0 -5.42101e-14 -1.90238e-14 0 0 0 0)
(0 1.79719e-15 0 0 -1.2548e-14 0 0 0 0)
(5.42101e-14 -6.21764e-15 0 0 8.31037e-15 0 0 0 0)
(0 6.58924e-15 0 -2.71051e-14 1.66017e-14 0 0 0 0)
(2.1684e-13 1.3511e-13 0 -4.06576e-13 5.1856e-14 0 0 0 0)
(-2.1684e-13 -1.24638e-13 0 -5.42101e-14 -8.60931e-15 0 0 0 0)
(2.71051e-14 1.29962e-14 0 -1.35525e-13 -1.62515e-14 0 0 0 0)
(0 -5.29986e-15 0 0 -1.16688e-14 0 0 0 0)
(2.71051e-14 -6.21388e-15 0 -8.13152e-14 5.3747e-15 0 0 0 0)
(0 -1.56961e-15 0 -2.71051e-14 2.34066e-16 0 0 0 0)
(0 1.37727e-14 0 -2.71051e-14 -1.10689e-14 0 0 0 0)
(5.42101e-14 1.5756e-14 0 -5.42101e-14 -4.48689e-15 0 0 0 0)
(-2.71051e-14 -1.94009e-14 0 5.42101e-14 4.94453e-15 0 0 0 0)
(-2.71051e-14 -3.56587e-14 0 1.0842e-13 1.824e-14 0 0 0 0)
(-2.71051e-14 -4.20892e-15 0 0 2.73905e-14 0 0 0 0)
(-2.71051e-14 -1.68174e-15 0 5.42101e-14 1.68084e-14 0 0 0 0)
(0 -1.36699e-14 0 2.71051e-14 -2.75802e-15 0 0 0 0)
(0 -2.98133e-16 0 5.42101e-14 -3.27579e-15 0 0 0 0)
(0 1.58818e-15 0 5.42101e-14 -2.17023e-15 0 0 0 0)
(2.71051e-14 1.27763e-15 0 5.42101e-14 5.80406e-16 0 0 0 0)
(2.71051e-14 1.02467e-14 0 5.42101e-14 2.16217e-15 0 0 0 0)
(0 2.17697e-14 0 0 -1.92559e-15 0 0 0 0)
(-2.71051e-14 1.01399e-14 0 0 6.28372e-16 0 0 0 0)
(-2.71051e-14 -1.00173e-14 0 -2.71051e-14 1.29797e-14 0 0 0 0)
(-7.04731e-13 1.02498e-13 0 -5.42101e-14 -1.3867e-13 0 0 0 0)
(6.23416e-13 -1.37112e-13 0 5.42101e-14 -7.34169e-14 0 0 0 0)
(-1.0842e-13 3.1817e-14 0 5.42101e-14 -1.60117e-14 0 0 0 0)
(1.0842e-13 3.24573e-15 0 -5.42101e-14 -3.54633e-14 0 0 0 0)
(0 7.80043e-15 0 0 -1.84928e-15 0 0 0 0)
(2.71051e-14 -1.15051e-14 0 -8.13152e-14 -5.96474e-16 0 0 0 0)
(-2.71051e-14 -8.67984e-15 0 0 -1.15981e-14 0 0 0 0)
(0 6.53212e-15 0 -5.42101e-14 -4.03856e-14 0 0 0 0)
(8.13152e-14 1.10136e-14 0 -1.0842e-13 -4.21631e-14 0 0 0 0)
(2.71051e-14 2.61499e-15 0 -5.42101e-14 -2.76196e-15 0 0 0 0)
(-8.13152e-14 -1.13169e-14 0 -5.42101e-14 1.43131e-14 0 0 0 0)
(5.42101e-14 -2.13784e-14 0 0 -1.45158e-14 0 0 0 0)
(2.71051e-14 -1.23638e-14 0 -2.71051e-14 -4.13662e-15 0 0 0 0)
(0 6.36245e-15 0 0 7.02325e-15 0 0 0 0)
(0 1.34583e-14 0 -5.42101e-14 1.13964e-14 0 0 0 0)
(-2.71051e-14 1.22932e-14 0 -5.42101e-14 1.37707e-14 0 0 0 0)
(-5.42101e-14 2.78784e-15 0 -5.42101e-14 1.66993e-14 0 0 0 0)
(-2.71051e-14 2.63397e-16 0 -5.42101e-14 1.48453e-15 0 0 0 0)
(8.13152e-14 8.6877e-15 0 0 -2.15328e-14 0 0 0 0)
(0 -7.01888e-15 0 0 -6.52589e-15 0 0 0 0)
(1.89735e-13 -7.69771e-14 0 1.43657e-12 -1.83971e-13 0 0 0 0)
(-1.89735e-13 -1.97972e-15 0 -8.13152e-14 3.74719e-14 0 0 0 0)
(5.42101e-14 5.09499e-14 0 2.71051e-13 -6.94536e-15 0 0 0 0)
(-2.71051e-14 8.8626e-15 0 1.0842e-13 2.68377e-15 0 0 0 0)
(-2.71051e-14 2.86529e-14 0 1.0842e-13 5.58609e-15 0 0 0 0)
(0 -1.13184e-14 0 1.0842e-13 8.62854e-15 0 0 0 0)
(0 -2.60164e-14 0 8.13152e-14 8.52014e-15 0 0 0 0)
(0 -1.4809e-14 0 1.6263e-13 2.31024e-16 0 0 0 0)
(-5.42101e-14 1.82228e-14 0 1.0842e-13 -8.85489e-15 0 0 0 0)
(0 2.08175e-14 0 5.42101e-14 -8.87206e-15 0 0 0 0)
(5.42101e-14 -1.59628e-14 0 1.0842e-13 -6.52467e-15 0 0 0 0)
(0 -2.01315e-14 0 5.42101e-14 1.20189e-15 0 0 0 0)
(0 7.86913e-15 0 2.71051e-14 1.4256e-14 0 0 0 0)
(-5.42101e-14 1.52349e-14 0 2.71051e-14 1.76725e-14 0 0 0 0)
(0 8.33558e-15 0 5.42101e-14 5.10625e-15 0 0 0 0)
(0 6.58048e-15 0 8.13152e-14 -6.16532e-15 0 0 0 0)
(5.42101e-14 -2.03943e-15 0 5.42101e-14 -6.40189e-15 0 0 0 0)
(0 -1.64623e-14 0 8.13152e-14 -1.08812e-16 0 0 0 0)
(0 2.12945e-15 0 2.71051e-14 -7.56695e-15 0 0 0 0)
(0 1.80414e-14 0 5.42101e-14 -9.8459e-15 0 0 0 0)
(5.69206e-13 -4.4001e-14 0 -8.94467e-13 4.69598e-14 0 0 0 0)
(-4.87891e-13 3.99137e-14 0 8.13152e-14 7.40183e-14 0 0 0 0)
(1.0842e-13 -2.97111e-15 0 -1.89735e-13 9.02578e-15 0 0 0 0)
(-8.13152e-14 1.57772e-14 0 -5.42101e-14 2.60395e-14 0 0 0 0)
(2.71051e-14 1.37452e-14 0 -5.42101e-14 -1.5614e-14 0 0 0 0)
(2.71051e-14 -8.57109e-15 0 -5.42101e-14 -1.63586e-14 0 0 0 0)
(2.71051e-14 -1.70774e-14 0 -8.13152e-14 4.27552e-15 0 0 0 0)
(-2.71051e-14 -1.08429e-14 0 -1.0842e-13 2.67352e-14 0 0 0 0)
(-2.71051e-14 1.91056e-15 0 -5.42101e-14 2.99274e-14 0 0 0 0)
(0 4.94521e-15 0 -5.42101e-14 6.60181e-15 0 0 0 0)
(-2.71051e-14 -1.24299e-15 0 -5.42101e-14 4.16467e-15 0 0 0 0)
(-2.71051e-14 -5.97685e-16 0 -5.42101e-14 2.38076e-14 0 0 0 0)
(-2.71051e-14 4.10676e-15 0 -2.71051e-14 2.48939e-14 0 0 0 0)
(0 -2.78734e-15 0 -2.71051e-14 1.18317e-14 0 0 0 0)
(0 -1.03795e-14 0 0 1.24463e-14 0 0 0 0)
(-2.71051e-14 7.85087e-16 0 -2.71051e-14 1.38756e-14 0 0 0 0)
(0 8.84434e-15 0 0 5.08071e-15 0 0 0 0)
(2.71051e-14 -9.01662e-16 0 -2.71051e-14 7.0707e-15 0 0 0 0)
(0 -1.04939e-15 0 -2.71051e-14 2.24447e-14 0 0 0 0)
(-5.42101e-14 1.0394e-14 0 -5.42101e-14 5.99063e-15 0 0 0 0)
)
;

boundaryField
{
    movingWall
    {
        type            extrapolatedCalculated;
        value           nonuniform List<tensor> 
20
(
(5.69206e-13 -4.4001e-14 0 -2.57572e-12 1.79141e-13 0 0 0 0)
(-4.87891e-13 3.99137e-14 0 2.66454e-13 -3.13667e-15 0 0 0 0)
(1.0842e-13 -2.97111e-15 0 -5.77316e-13 1.94858e-14 0 0 0 0)
(-8.13152e-14 1.57772e-14 0 -1.77636e-13 8.74778e-15 0 0 0 0)
(2.71051e-14 1.37452e-14 0 -2.22045e-13 -4.36229e-14 0 0 0 0)
(2.71051e-14 -8.57109e-15 0 -2.66454e-13 -4.6233e-14 0 0 0 0)
(2.71051e-14 -1.70774e-14 0 -3.55271e-13 -9.33858e-15 0 0 0 0)
(-2.71051e-14 -1.08429e-14 0 -3.9968e-13 2.20764e-14 0 0 0 0)
(-2.71051e-14 1.91056e-15 0 -2.22045e-13 3.4033e-14 0 0 0 0)
(0 4.94521e-15 0 -2.66454e-13 1.44341e-14 0 0 0 0)
(-2.71051e-14 -1.24299e-15 0 -2.22045e-13 1.42522e-14 0 0 0 0)
(-2.71051e-14 -5.97685e-16 0 -2.22045e-13 1.94061e-14 0 0 0 0)
(-2.71051e-14 4.10676e-15 0 -8.88178e-14 1.6643e-14 0 0 0 0)
(0 -2.78734e-15 0 -1.33227e-13 2.97904e-15 0 0 0 0)
(0 -1.03795e-14 0 -8.88178e-14 2.77923e-14 0 0 0 0)
(-2.71051e-14 7.85087e-16 0 -1.33227e-13 4.44971e-14 0 0 0 0)
(0 8.84434e-15 0 0 2.4652e-14 0 0 0 0)
(2.71051e-14 -9.01662e-16 0 -4.44089e-14 9.11971e-15 0 0 0 0)
(0 -1.04939e-15 0 -8.88178e-14 2.82586e-14 0 0 0 0)
(-5.42101e-14 1.0394e-14 0 -1.33227e-13 1.33173e-14 0 0 0 0)
)
;
    }
    fixedWalls
    {
        type            extrapolatedCalculated;
        value           nonuniform List<tensor> 
60
(
(1.46549e-12 8.53372e-13 0 -2.71051e-13 1.00642e-13 0 0 0 0)
(-2.57572e-12 -4.50805e-13 0 -2.98156e-13 -4.7433e-13 0 0 0 0)
(2.66454e-13 -1.04395e-12 0 4.33681e-13 2.84637e-13 0 0 0 0)
(-7.99361e-13 6.87743e-13 0 -4.06576e-13 2.92614e-13 0 0 0 0)
(-1.33227e-12 1.26508e-13 0 4.87891e-13 -5.037e-13 0 0 0 0)
(1.06581e-12 -1.32706e-12 0 1.6263e-13 -5.11288e-14 0 0 0 0)
(-6.21725e-13 -7.80069e-14 0 -5.96311e-13 6.45887e-13 0 0 0 0)
(-1.24345e-12 1.25649e-12 0 2.98156e-13 -7.84787e-14 0 0 0 0)
(5.32907e-13 -3.91922e-13 0 6.23416e-13 -6.55366e-13 0 0 0 0)
(1.24345e-12 -1.36498e-12 0 -2.43945e-13 4.60136e-13 0 0 0 0)
(-4.44089e-13 1.44862e-12 0 -1.0842e-13 4.58198e-13 0 0 0 0)
(7.99361e-13 4.67816e-13 0 -1.6263e-13 -5.91774e-13 0 0 0 0)
(-1.06581e-12 -9.18471e-13 0 0 -2.279e-14 0 0 0 0)
(7.54952e-13 3.76656e-13 0 2.98156e-13 1.67292e-13 0 0 0 0)
(1.33227e-13 -2.49302e-13 0 -5.14996e-13 -6.83371e-15 0 0 0 0)
(-1.42109e-12 3.49321e-13 0 2.1684e-13 1.98821e-13 0 0 0 0)
(1.02141e-12 5.45982e-13 0 -4.06576e-13 5.1856e-14 0 0 0 0)
(-3.01981e-12 5.56745e-13 0 -5.42101e-14 -1.3867e-13 0 0 0 0)
(9.76996e-13 -8.69846e-15 0 1.43657e-12 -1.83971e-13 0 0 0 0)
(2.57572e-12 -1.79141e-13 0 -8.94467e-13 4.69598e-14 0 0 0 0)
(8.88178e-14 -2.43191e-14 0 -5.42101e-14 4.91507e-15 0 0 0 0)
(8.88178e-14 4.65883e-15 0 5.42101e-14 -1.72357e-14 0 0 0 0)
(0 4.46237e-14 0 0 -3.40113e-15 0 0 0 0)
(-4.44089e-14 1.82633e-14 0 2.71051e-14 9.68451e-15 0 0 0 0)
(0 5.88564e-15 0 -2.71051e-14 6.71093e-15 0 0 0 0)
(-4.44089e-14 -8.5804e-15 0 2.71051e-14 3.14888e-15 0 0 0 0)
(0 -6.70988e-15 0 -2.71051e-14 -1.80554e-15 0 0 0 0)
(-4.44089e-14 -1.35823e-15 0 2.71051e-14 -7.20625e-17 0 0 0 0)
(0 -6.42163e-15 0 -2.71051e-14 -6.28403e-15 0 0 0 0)
(0 2.37779e-14 0 2.71051e-14 -9.10872e-15 0 0 0 0)
(-8.88178e-14 3.00132e-14 0 2.71051e-14 5.81934e-15 0 0 0 0)
(-8.88178e-14 5.00508e-16 0 -5.42101e-14 2.28206e-15 0 0 0 0)
(8.88178e-14 2.0885e-14 0 0 -1.48115e-14 0 0 0 0)
(0 5.97465e-14 0 2.71051e-14 -7.51591e-15 0 0 0 0)
(-8.88178e-14 5.09486e-14 0 2.71051e-14 8.47345e-15 0 0 0 0)
(-8.88178e-14 2.58527e-14 0 -2.71051e-14 1.66017e-14 0 0 0 0)
(0 -1.54583e-14 0 -2.71051e-14 1.29797e-14 0 0 0 0)
(-4.44089e-14 -2.60663e-14 0 0 -6.52589e-15 0 0 0 0)
(0 1.06453e-14 0 5.42101e-14 -9.8459e-15 0 0 0 0)
(-1.33227e-13 1.33173e-14 0 -5.42101e-14 5.99063e-15 0 0 0 0)
(4.33681e-13 2.37179e-13 0 1.46549e-12 8.53372e-13 0 0 0 0)
(-2.71051e-13 -1.89344e-13 0 2.22045e-13 9.53455e-14 0 0 0 0)
(0 -6.88652e-15 0 4.44089e-13 9.5997e-14 0 0 0 0)
(-5.42101e-14 -2.24204e-14 0 2.22045e-13 6.77994e-14 0 0 0 0)
(0 -1.45036e-14 0 1.77636e-13 6.31542e-15 0 0 0 0)
(2.71051e-14 5.40094e-15 0 2.66454e-13 9.78511e-15 0 0 0 0)
(-2.71051e-14 4.06335e-15 0 2.22045e-13 2.79192e-14 0 0 0 0)
(0 -6.59002e-15 0 2.22045e-13 2.60385e-14 0 0 0 0)
(-2.71051e-14 -9.65294e-15 0 1.77636e-13 1.55908e-15 0 0 0 0)
(-2.71051e-14 -1.36319e-15 0 1.33227e-13 -1.25732e-14 0 0 0 0)
(5.42101e-14 7.53621e-15 0 1.77636e-13 -3.89367e-15 0 0 0 0)
(-2.71051e-14 5.64962e-15 0 2.66454e-13 1.75716e-14 0 0 0 0)
(0 3.50467e-15 0 1.33227e-13 1.87048e-14 0 0 0 0)
(0 1.32436e-14 0 1.77636e-13 3.15903e-14 0 0 0 0)
(-2.71051e-14 1.18946e-14 0 1.77636e-13 7.16793e-14 0 0 0 0)
(-2.71051e-14 -1.60763e-14 0 4.44089e-14 7.91685e-14 0 0 0 0)
(-2.71051e-14 -2.72537e-14 0 0 7.37428e-15 0 0 0 0)
(2.71051e-14 -4.6059e-15 0 0 -2.98464e-14 0 0 0 0)
(-2.71051e-14 1.35414e-14 0 8.88178e-14 -1.10493e-14 0 0 0 0)
(0 -3.31745e-15 0 -8.88178e-14 2.43191e-14 0 0 0 0)
)
;
    }
    frontAndBack
    {
        type            empty;
    }
}


// ************************************************************************* //
