/*--------------------------------*- C++ -*----------------------------------*\
| =========                 |                                                 |
| \\      /  F ield         | OpenFOAM: The Open Source CFD Toolbox           |
|  \\    /   O peration     | Version:  2506                                  |
|   \\  /    A nd           | Website:  www.openfoam.com                      |
|    \\/     M anipulation  |                                                 |
\*---------------------------------------------------------------------------*/
FoamFile
{
    version     2.0;
    format      ascii;
    arch        "LSB;label=32;scalar=64";
    class       volScalarField;
    location    "7.625";
    object      Lambda2Field;
}
// * * * * * * * * * * * * * * * * * * * * * * * * * * * * * * * * * * * * * //

dimensions      [0 0 -2 0 0 0 0];

internalField   nonuniform List<scalar> 
400
(
0
0
0
4.81892e-28
-3.5912e-28
2.23324e-28
2.80254e-29
-1.7537e-28
0
0
1.24201e-29
2.02472e-28
0
0
4.91207e-28
7.34684e-28
1.42458e-28
8.59542e-31
6.56005e-29
1.7984e-28
2.37015e-25
0
5.10983e-27
5.08138e-29
5.27705e-28
4.82852e-28
8.85304e-28
0
0
3.53212e-28
4.64306e-30
2.39891e-30
1.10336e-28
-3.30965e-28
0
5.53306e-28
1.52242e-31
1.39589e-28
1.38685e-29
6.49532e-28
0
1.49345e-26
-8.09275e-27
8.66941e-28
-1.01521e-27
-3.02009e-27
-9.91287e-28
9.77626e-28
1.36005e-27
0
-6.4031e-28
1.22062e-29
7.61071e-28
0
0
2.81968e-28
0
9.43749e-29
0
0
0
1.44746e-26
-3.53975e-29
6.18975e-28
0
0
1.98206e-27
1.67482e-27
-2.8276e-28
9.45583e-32
0
-6.62581e-28
-3.69638e-29
-1.7759e-28
1.3559e-28
0
-3.28087e-28
2.84307e-29
6.83105e-30
4.06781e-28
6.67806e-26
4.62348e-27
8.94276e-28
0
-5.21582e-28
-2.97985e-27
-7.41558e-28
4.62867e-28
2.63865e-27
7.36302e-28
0
0
0
0
7.82085e-29
1.55015e-29
0
-3.92916e-28
0
0
0
0
1.11789e-27
0
-1.50198e-27
-7.50176e-28
-7.39898e-28
0
0
0
-3.03922e-28
0
4.38356e-29
0
1.6719e-29
5.73072e-29
0
9.75248e-29
0
0
5.59454e-26
6.61216e-27
1.22672e-27
-1.95917e-27
-1.23209e-27
0
1.38765e-27
6.86297e-28
7.34684e-28
9.34956e-28
-5.68893e-28
-6.59569e-28
0
4.68766e-28
0
3.44409e-28
0
0
0
2.83924e-28
7.50335e-26
0
7.00181e-27
0
5.50954e-28
0
-1.09499e-27
8.26855e-28
3.17879e-28
0
0
2.36751e-29
0
0
0
0
-8.88683e-28
1.38568e-28
2.05652e-28
1.55823e-28
0
8.95039e-27
2.16513e-28
-1.6348e-27
-8.1187e-28
-7.02789e-28
-3.17571e-28
1.43371e-27
1.22905e-27
1.75598e-27
4.28196e-28
-6.80122e-28
-1.51731e-27
-1.21303e-27
0
7.71864e-29
9.02922e-29
6.08475e-28
0
-6.72424e-29
1.52892e-25
0
7.51271e-27
-5.91844e-28
2.41652e-28
-3.22492e-28
0
0
0
-1.51278e-28
2.18445e-29
7.04858e-28
0
5.57935e-28
5.3046e-30
2.36205e-28
0
1.20171e-28
0
2.14717e-28
3.98793e-26
-4.20276e-26
4.73093e-27
-1.59426e-27
0
3.15475e-28
0
0
1.0534e-27
-1.01284e-27
0
3.42922e-28
0
8.09523e-29
-1.68433e-27
0
2.85388e-28
0
0
2.88144e-28
8.63518e-26
0
2.80054e-29
0
6.17814e-28
4.90657e-28
0
4.41104e-28
1.76103e-28
0
-1.44456e-28
0
0
0
3.6996e-28
6.88358e-29
0
-8.1225e-28
0
8.28162e-29
5.19385e-28
0
2.20051e-27
-1.43804e-27
4.2579e-29
4.7122e-28
2.58419e-28
4.04437e-28
2.88452e-28
-6.41175e-29
2.84728e-29
0
2.56311e-28
0
0
0
0
-2.69755e-28
0
2.1938e-28
4.09242e-26
4.98969e-27
1.13942e-27
4.57417e-29
-6.70797e-28
-8.37973e-28
0
0
0
0
0
0
-3.91627e-28
-1.85138e-27
0
0
0
-1.52368e-29
1.15441e-28
8.49369e-28
8.11285e-27
4.15685e-27
3.22381e-27
1.46645e-29
6.15278e-29
1.63341e-30
1.28269e-28
2.52724e-28
0
-2.79318e-28
7.3053e-29
1.26365e-27
7.38145e-28
4.28323e-28
6.67303e-28
-4.12131e-28
-3.6582e-28
4.28656e-28
2.64827e-28
4.75524e-28
5.2378e-26
2.29994e-27
2.88503e-27
-7.59926e-28
0
2.67714e-28
-3.19135e-28
0
0
-5.36756e-28
0
2.37715e-28
8.04441e-28
0
0
-3.86259e-28
7.49266e-29
0
6.90623e-29
0
-7.91272e-27
6.83077e-27
-1.02663e-27
0
5.3417e-28
4.25444e-29
-2.5079e-28
0
-3.17039e-28
-3.13144e-27
7.34684e-28
1.91354e-28
-3.62917e-28
-5.43102e-30
8.60952e-29
6.95974e-29
5.60149e-28
0
3.94851e-31
4.39992e-28
1.3673e-26
0
1.98118e-27
1.08169e-27
0
9.35898e-28
1.34516e-28
0
5.83624e-28
0
8.18359e-28
2.10709e-28
3.52234e-28
0
-5.99696e-28
0
1.27737e-28
0
4.6366e-28
0
-7.45833e-26
1.56513e-27
1.38582e-26
9.68088e-28
3.13776e-27
-1.15269e-27
-2.04294e-27
-2.40833e-27
2.05413e-27
1.12852e-27
0
-1.08989e-27
2.13293e-28
7.2526e-28
4.51873e-28
5.35093e-28
0
-1.33863e-27
5.7719e-29
9.78026e-28
4.15627e-26
8.7243e-27
6.4519e-28
0
-1.04452e-29
7.32243e-28
1.40693e-27
1.89036e-27
6.31112e-28
-2.24496e-28
8.47269e-29
5.99201e-28
5.08391e-28
7.55509e-29
0
1.71253e-28
0
7.44344e-29
2.84438e-29
0
)
;

boundaryField
{
    movingWall
    {
        type            calculated;
        value           nonuniform List<scalar> 
20
(
1.45426e-25
1.0645e-26
2.09497e-27
0
-1.14909e-27
3.01848e-27
6.1543e-27
4.82106e-27
3.10454e-28
-1.10932e-27
4.79124e-28
5.09309e-28
0
3.71348e-28
9.21886e-28
6.30089e-28
0
1.23211e-28
9.32045e-29
0
)
;
    }
    fixedWalls
    {
        type            calculated;
        value           nonuniform List<scalar> 
60
(
0
3.594e-25
-3.71723e-25
0
3.15436e-25
0
4.33058e-25
3.80788e-25
3.96595e-26
5.44705e-25
4.01551e-26
2.74115e-25
5.19385e-28
1.40289e-25
1.28436e-25
1.15277e-25
0
0
2.13495e-26
1.62441e-25
1.3425e-27
5.49625e-28
0
5.88818e-28
-1.14494e-28
0
1.81872e-28
0
1.74059e-28
6.44501e-28
8.47375e-28
0
2.1938e-28
1.61943e-27
1.45276e-27
0
4.18998e-28
4.25872e-29
5.77081e-28
0
5.35664e-25
0
0
-3.81565e-28
-2.53647e-27
1.53485e-27
1.63693e-27
-7.85274e-28
-9.80023e-28
0
1.35386e-27
1.81412e-27
4.66916e-28
2.35254e-27
2.84758e-27
2.07546e-29
5.43801e-29
7.34684e-28
1.3248e-27
2.94649e-28
)
;
    }
    frontAndBack
    {
        type            empty;
    }
}


// ************************************************************************* //
