/*--------------------------------*- C++ -*----------------------------------*\
| =========                 |                                                 |
| \\      /  F ield         | OpenFOAM: The Open Source CFD Toolbox           |
|  \\    /   O peration     | Version:  2506                                  |
|   \\  /    A nd           | Website:  www.openfoam.com                      |
|    \\/     M anipulation  |                                                 |
\*---------------------------------------------------------------------------*/
FoamFile
{
    version     2.0;
    format      ascii;
    arch        "LSB;label=32;scalar=64";
    class       volVectorField;
    location    "7.625";
    object      LambVectorField;
}
// * * * * * * * * * * * * * * * * * * * * * * * * * * * * * * * * * * * * * //

dimensions      [0 1 -2 0 0 0 0];

internalField   nonuniform List<vector> 
400
(
(-1.08427e-27 -5.0823e-13 0)
(6.45153e-29 2.70659e-13 0)
(1.65271e-30 6.88652e-15 0)
(8.3945e-30 4.95255e-14 0)
(6.5694e-31 4.16086e-14 0)
(5.30943e-31 2.17041e-14 0)
(-2.83614e-31 -4.06335e-15 0)
(2.19342e-30 3.36951e-14 0)
(1.43272e-31 3.6758e-14 0)
(-8.94846e-31 2.84682e-14 -0)
(7.33588e-32 -7.53621e-15 -0)
(9.42516e-31 2.14554e-14 0)
(-1.63886e-31 -3.50467e-15 0)
(-1.04593e-30 -1.32436e-14 0)
(-2.13149e-30 -1.18946e-14 0)
(3.18184e-30 1.60763e-14 0)
(5.02442e-31 2.72537e-14 0)
(-3.43674e-31 4.6059e-15 -0)
(3.74057e-31 -1.35414e-14 -0)
(-3.09416e-30 -5.08927e-14 0)
(2.90568e-28 -2.57821e-13 -0)
(-1.07161e-28 -1.48079e-13 0)
(-2.0688e-30 -2.50071e-14 0)
(6.4569e-31 4.02069e-15 0)
(-1.89117e-30 -4.44757e-14 0)
(-4.76743e-30 -7.53771e-14 0)
(7.27957e-31 -4.31793e-14 -0)
(1.57004e-30 -3.33624e-14 -0)
(-4.05661e-30 -8.87381e-14 0)
(-5.42918e-31 -1.99828e-14 0)
(1.38061e-30 -5.41245e-14 -0)
(-2.13885e-30 -8.12857e-14 0)
(1.34627e-30 -5.21748e-14 -0)
(-3.63722e-31 -6.10338e-14 0)
(-2.75744e-30 -6.49827e-14 0)
(-6.82779e-30 -6.00588e-14 0)
(4.8785e-31 4.83402e-15 0)
(1.00821e-30 1.54291e-14 0)
(-4.10913e-31 7.6992e-15 -0)
(-5.55662e-31 4.77083e-14 -0)
(-1.61737e-27 6.19712e-13 -0)
(-1.55707e-28 -2.0773e-13 0)
(1.9121e-30 2.0066e-13 0)
(9.89585e-30 1.00757e-13 0)
(1.23243e-29 1.4304e-13 0)
(4.17933e-30 1.81217e-13 0)
(-1.43498e-29 1.43918e-13 -0)
(-2.20178e-30 3.61761e-14 -0)
(5.29885e-30 6.57166e-14 0)
(6.06437e-30 6.37534e-14 0)
(-1.79242e-30 1.21102e-13 -0)
(-2.57281e-30 8.11651e-14 -0)
(-1.37777e-30 1.03593e-13 -0)
(1.3874e-30 8.37332e-14 0)
(-4.48963e-30 1.19787e-13 -0)
(-4.75864e-30 4.90087e-14 -0)
(-2.0439e-31 -1.4063e-14 0)
(3.45632e-31 7.93976e-15 0)
(-1.00598e-30 1.55091e-14 -0)
(1.96816e-30 -1.76423e-14 -0)
(-9.96674e-28 -5.79678e-13 0)
(2.48338e-30 2.12911e-13 0)
(-4.76291e-30 -3.59884e-14 0)
(7.20295e-31 7.16732e-15 0)
(3.25358e-31 5.36253e-15 0)
(-2.03176e-31 -4.3347e-15 0)
(2.05952e-30 1.97994e-14 0)
(1.84741e-30 1.54042e-14 0)
(-2.0341e-30 4.06638e-14 -0)
(1.51776e-31 -9.69276e-15 -0)
(-1.40852e-30 -3.0029e-14 0)
(-1.21501e-30 -8.94635e-14 0)
(-8.7875e-30 -6.84445e-14 0)
(-5.31152e-30 -3.40646e-14 0)
(-4.66956e-30 -2.35855e-14 0)
(8.76372e-30 7.25896e-14 0)
(6.01018e-31 4.23582e-14 0)
(-2.67148e-31 8.40041e-15 -0)
(-9.67396e-32 1.38565e-15 -0)
(-7.10339e-31 1.55577e-14 -0)
(1.68642e-28 5.33221e-13 0)
(2.7943e-29 -3.63097e-14 -0)
(8.28116e-30 -6.18996e-14 -0)
(9.4295e-30 -6.26224e-14 -0)
(2.4716e-30 -4.97691e-14 -0)
(-9.01723e-30 -1.18548e-13 0)
(-2.6279e-29 -8.1442e-14 0)
(5.22501e-30 1.49979e-14 0)
(-5.04115e-30 -2.91916e-14 0)
(-4.24844e-30 -4.32643e-14 0)
(8.24837e-31 1.30442e-14 0)
(-1.96071e-30 6.08068e-14 -0)
(1.52399e-31 -5.57675e-14 -0)
(4.77642e-32 -2.86506e-15 -0)
(-8.44788e-31 -3.25949e-14 0)
(-1.34579e-30 -3.52052e-14 0)
(-9.32096e-30 -8.71777e-14 0)
(4.03581e-30 4.16697e-14 0)
(-1.48178e-30 3.82617e-14 -0)
(4.77461e-31 -3.24492e-14 -0)
(-1.53336e-27 4.62182e-13 -0)
(-1.53886e-28 -4.77725e-13 0)
(-2.35673e-30 1.41377e-14 -0)
(6.07904e-30 -6.73176e-14 -0)
(4.59722e-30 -1.2905e-13 -0)
(-6.62202e-30 -5.70903e-14 0)
(-2.01126e-29 -7.61181e-14 0)
(-1.05516e-29 -3.14905e-14 0)
(7.12221e-30 2.31178e-14 0)
(8.6081e-30 8.28543e-14 0)
(8.37598e-31 3.87024e-14 0)
(-3.89938e-31 3.22818e-14 -0)
(-3.25399e-30 1.08016e-13 -0)
(6.22317e-32 -7.74405e-15 -0)
(1.16158e-31 2.45497e-15 0)
(-2.29142e-31 7.03198e-15 -0)
(3.31735e-32 -1.44205e-15 -0)
(1.45704e-31 -8.02106e-15 -0)
(-1.77721e-30 -3.10667e-14 0)
(7.50158e-31 3.49708e-14 0)
(1.13372e-28 -5.81343e-13 -0)
(-3.77151e-31 -8.31902e-15 0)
(1.47607e-29 -1.31996e-13 -0)
(-1.56123e-30 -1.55402e-13 0)
(-1.30449e-29 -1.50037e-13 0)
(-1.2992e-29 -8.3728e-14 0)
(-1.48038e-29 -1.3328e-13 0)
(-1.44481e-29 -1.08867e-13 0)
(1.34637e-30 1.16533e-14 0)
(-1.61745e-30 -9.99612e-14 0)
(-3.52506e-30 -1.1391e-13 0)
(-6.44207e-30 -9.06364e-14 0)
(-1.72745e-29 -1.39133e-13 0)
(-8.09861e-30 -7.558e-14 0)
(-5.47766e-30 -8.19928e-14 0)
(-2.52068e-30 -2.2125e-14 0)
(1.96988e-31 1.15831e-14 0)
(1.68186e-31 -8.8412e-14 -0)
(-1.6431e-31 -1.8677e-15 0)
(-2.78965e-31 -1.66301e-14 0)
(2.10944e-28 6.71534e-14 0)
(-3.19803e-28 3.84749e-13 -0)
(-1.4681e-31 -1.37359e-15 0)
(-2.60505e-31 6.04154e-14 -0)
(4.73871e-30 1.05709e-13 0)
(2.50241e-31 1.09739e-14 0)
(-6.6057e-30 1.01765e-13 -0)
(-5.46954e-30 3.01031e-14 -0)
(2.30929e-30 -2.4336e-14 -0)
(-1.03477e-30 -1.678e-14 0)
(-1.85513e-31 -2.54447e-15 0)
(-2.22838e-31 -2.55808e-15 0)
(7.84181e-31 7.96208e-15 0)
(2.85763e-31 3.81503e-14 0)
(1.25184e-31 -1.04639e-14 -0)
(-9.66555e-30 -8.61999e-14 0)
(2.72588e-30 7.39047e-14 0)
(-8.29217e-31 9.77657e-15 -0)
(5.37055e-31 -8.82123e-15 -0)
(7.25175e-32 2.13564e-14 0)
(-7.08864e-28 7.23475e-13 -0)
(2.71314e-30 -1.30575e-13 -0)
(5.9008e-30 1.07495e-13 0)
(-1.71045e-30 1.4835e-13 -0)
(-1.03825e-29 1.41531e-13 -0)
(-1.00869e-29 1.40912e-13 -0)
(-1.50291e-29 1.18126e-13 -0)
(-1.71963e-29 1.01973e-13 -0)
(-2.2178e-31 3.53402e-15 -0)
(6.18588e-30 9.22242e-14 0)
(7.54445e-30 7.60493e-14 0)
(1.38038e-29 1.15288e-13 0)
(3.74446e-30 1.22663e-13 0)
(-2.73125e-30 1.2036e-13 -0)
(-1.30506e-29 1.46855e-13 -0)
(-1.14378e-29 8.41056e-14 -0)
(-6.13896e-30 5.25725e-14 -0)
(-8.99296e-30 7.51811e-14 -0)
(7.5204e-31 -1.35671e-14 -0)
(-4.98363e-31 -3.10427e-14 0)
(-6.2756e-29 1.83904e-14 -0)
(-3.76136e-28 -4.76676e-13 0)
(3.66371e-32 -3.92465e-14 -0)
(-1.11371e-29 -1.1441e-13 0)
(-6.26099e-30 -1.06191e-13 0)
(-8.36347e-30 -1.1143e-13 0)
(-9.84119e-30 -1.105e-13 0)
(-5.7617e-30 -6.0108e-14 0)
(-1.32166e-29 -8.92771e-14 0)
(-1.0015e-29 -5.70733e-14 0)
(-4.64631e-30 -2.62991e-14 0)
(-6.89885e-30 -4.12078e-14 0)
(1.167e-30 2.5017e-14 0)
(9.64875e-31 -1.16597e-14 -0)
(2.21008e-31 -2.05007e-15 -0)
(8.24031e-31 -1.32369e-14 -0)
(-1.53341e-30 -6.24268e-14 0)
(-4.51481e-31 -2.26715e-14 0)
(-1.56906e-31 7.93587e-15 -0)
(-1.14035e-30 1.91834e-14 -0)
(-1.51463e-27 -4.18225e-13 0)
(-2.55788e-28 4.88603e-13 -0)
(5.88345e-30 6.48062e-14 0)
(-8.91608e-30 1.0205e-13 -0)
(-9.52328e-30 8.17019e-14 -0)
(-4.415e-30 4.83906e-14 -0)
(-4.91772e-30 8.42558e-14 -0)
(-3.52612e-30 2.92277e-14 -0)
(-2.97857e-30 3.74225e-14 -0)
(-3.53685e-30 -7.48817e-14 0)
(-5.88129e-31 -4.62647e-15 0)
(1.74328e-30 1.86453e-14 0)
(-2.99774e-30 5.0526e-14 -0)
(3.72248e-30 -2.64546e-14 -0)
(8.18076e-30 -1.24261e-13 -0)
(-6.20482e-32 -3.50627e-15 0)
(-1.81794e-31 5.90766e-15 -0)
(4.96283e-32 -1.19932e-15 -0)
(-5.72212e-31 3.04703e-14 -0)
(-1.32987e-30 1.77238e-14 -0)
(-3.30022e-28 -2.82182e-13 0)
(5.19156e-30 1.99876e-13 0)
(-3.92685e-32 2.44343e-15 -0)
(4.72235e-32 3.06736e-14 0)
(-1.62603e-30 3.14168e-14 -0)
(3.75893e-31 -9.04073e-15 -0)
(-1.50815e-30 -3.90199e-14 0)
(-2.02236e-30 -2.60713e-14 0)
(1.67189e-32 5.90504e-16 0)
(-5.38961e-31 -7.5205e-15 0)
(3.73163e-30 3.60481e-14 0)
(-3.48192e-31 1.95996e-14 -0)
(5.14813e-30 -5.56688e-14 -0)
(1.85733e-31 -5.84343e-14 -0)
(6.75979e-31 -1.3456e-14 -0)
(-1.31477e-30 9.41346e-15 -0)
(1.29904e-30 -8.99796e-15 -0)
(3.48843e-30 -7.0204e-14 -0)
(-4.97365e-31 -3.19489e-14 0)
(6.60401e-32 -5.27785e-14 -0)
(-4.10904e-28 1.78951e-13 -0)
(-1.59458e-28 -3.1472e-13 0)
(-5.15641e-31 -1.36178e-14 0)
(-1.23332e-29 -1.2242e-13 0)
(-1.01669e-29 -5.71627e-14 0)
(-5.92963e-30 -4.55176e-14 0)
(-4.49605e-30 -4.94431e-14 0)
(-4.1654e-30 -5.04278e-14 0)
(-2.59654e-30 -4.88891e-14 0)
(1.66665e-30 5.67057e-14 0)
(-7.63892e-31 -2.7132e-14 0)
(-4.93899e-32 -1.66519e-15 0)
(1.32405e-30 2.95503e-14 0)
(5.67859e-32 1.09031e-14 0)
(-2.19346e-30 3.4153e-14 -0)
(-4.65371e-32 7.12982e-16 -0)
(-3.57641e-31 5.01217e-15 -0)
(-6.92087e-30 5.99767e-14 -0)
(8.15153e-31 -6.31802e-15 -0)
(9.46261e-31 -1.81233e-14 -0)
(2.39896e-28 2.54764e-13 0)
(-1.90519e-29 3.75241e-14 -0)
(-3.6178e-31 -1.48899e-14 0)
(5.81927e-31 -6.62974e-15 -0)
(-6.06633e-30 -6.69613e-14 0)
(2.77014e-30 6.97118e-14 0)
(-6.65965e-31 1.03375e-14 -0)
(3.86268e-31 -6.06976e-15 -0)
(1.89735e-32 -5.09412e-15 -0)
(6.75523e-32 -5.32036e-15 -0)
(-7.2393e-31 -1.4631e-14 0)
(-5.03064e-31 -3.76507e-15 0)
(3.62714e-30 4.16292e-14 0)
(-1.45977e-30 1.25537e-13 -0)
(-7.70305e-30 9.16602e-14 -0)
(-6.45271e-30 5.60722e-14 -0)
(-2.78336e-30 2.71124e-14 -0)
(-6.94866e-30 6.03437e-14 -0)
(-5.61106e-31 3.42146e-15 -0)
(6.31989e-31 -4.23114e-15 -0)
(3.11155e-28 -4.99243e-13 -0)
(-6.04029e-30 -1.29698e-14 0)
(-3.81979e-30 -7.86859e-14 0)
(-5.97984e-30 -3.55144e-14 0)
(-3.29409e-30 -2.48351e-14 0)
(9.62646e-31 6.60803e-15 0)
(1.29848e-30 1.9509e-14 0)
(8.78591e-31 -1.77812e-14 -0)
(2.31853e-30 -8.68992e-14 -0)
(-5.55669e-31 -8.64356e-14 0)
(-1.9721e-30 -8.04168e-14 0)
(2.09301e-31 -8.19112e-14 -0)
(-3.26452e-30 -1.07091e-13 0)
(7.34089e-31 -4.6309e-14 -0)
(3.54781e-30 -7.31088e-14 -0)
(6.11677e-30 -6.24697e-14 -0)
(-1.4707e-30 -4.31693e-14 0)
(-3.05137e-30 -4.86456e-14 0)
(-4.1017e-31 1.90098e-14 -0)
(-1.55524e-30 1.22102e-14 -0)
(1.37622e-28 1.57589e-13 0)
(-1.93755e-29 6.90048e-14 -0)
(8.51006e-30 4.64386e-14 0)
(6.77742e-30 9.96956e-14 0)
(-6.19593e-32 1.12523e-13 -0)
(1.32819e-30 4.92717e-14 0)
(4.16426e-30 8.5274e-14 0)
(-1.83176e-30 1.45007e-13 -0)
(-6.76988e-30 1.47239e-13 -0)
(-6.09066e-30 4.69361e-14 -0)
(-2.22793e-29 9.12004e-14 -0)
(-4.19168e-30 1.83349e-14 -0)
(-7.27972e-30 4.64898e-14 -0)
(9.08256e-30 -5.99848e-14 -0)
(9.49079e-31 -9.60208e-15 -0)
(3.44387e-30 -6.21709e-14 -0)
(1.14442e-30 -5.95039e-14 -0)
(4.41254e-33 -1.79719e-15 -0)
(-7.8389e-33 6.21764e-15 -0)
(2.17772e-30 -3.36943e-14 -0)
(-7.39377e-28 -5.41686e-13 0)
(-9.75803e-31 7.04281e-14 -0)
(-1.76108e-29 -1.48521e-13 0)
(6.15351e-31 5.29986e-15 0)
(-4.9248e-30 -7.51013e-14 0)
(-1.3781e-30 -2.55354e-14 0)
(-2.03896e-30 -4.08778e-14 0)
(-1.34122e-29 -6.99661e-14 0)
(1.52698e-29 7.3611e-14 0)
(-3.33286e-31 1.44079e-13 -0)
(-6.27751e-31 4.20892e-15 -0)
(-2.48174e-30 5.58919e-14 -0)
(-6.76722e-30 4.0775e-14 -0)
(-9.87154e-30 5.45082e-14 -0)
(-8.89029e-30 5.26219e-14 -0)
(-8.7455e-30 5.29325e-14 -0)
(-6.86577e-30 4.39634e-14 -0)
(1.36611e-30 -2.17697e-14 -0)
(-6.23876e-31 -1.01399e-14 0)
(-6.6037e-31 -1.70878e-14 0)
(-2.18117e-28 -1.56709e-13 0)
(-7.01919e-29 1.91322e-13 -0)
(4.64413e-31 2.23931e-14 0)
(2.79851e-30 -5.74558e-14 -0)
(-4.14955e-31 -7.80043e-15 0)
(-2.04524e-30 -6.981e-14 0)
(-5.36891e-31 8.67984e-15 -0)
(3.49275e-30 -6.07422e-14 -0)
(-4.13989e-31 -1.19434e-13 0)
(-2.99101e-30 -5.68251e-14 0)
(-1.27033e-30 -4.28932e-14 0)
(-1.29412e-30 2.13784e-14 -0)
(2.71486e-30 -1.47412e-14 -0)
(1.17179e-30 -6.36245e-15 -0)
(8.15697e-30 -6.76684e-14 -0)
(3.29787e-30 -6.65033e-14 -0)
(-1.36168e-31 -5.69979e-14 0)
(1.18268e-30 -5.44735e-14 -0)
(-4.3638e-32 -8.6877e-15 0)
(4.57391e-31 7.01888e-15 0)
(-3.29138e-29 1.51354e-12 -0)
(5.93449e-29 -7.93354e-14 -0)
(-9.14372e-30 2.20101e-13 -0)
(-2.37471e-29 9.95576e-14 -0)
(3.75565e-30 7.97673e-14 0)
(5.74786e-30 1.19739e-13 0)
(-7.09479e-30 1.07332e-13 -0)
(-3.76456e-29 1.77439e-13 -0)
(-1.93195e-29 9.01974e-14 -0)
(-9.99534e-31 3.33926e-14 -0)
(-7.4831e-31 1.24383e-13 -0)
(-1.40922e-29 7.43416e-14 -0)
(-3.98821e-30 1.92359e-14 -0)
(-1.31603e-30 1.18701e-14 -0)
(-2.52228e-30 4.58745e-14 -0)
(-2.0562e-30 7.47347e-14 -0)
(6.08777e-31 5.62495e-14 0)
(-4.6843e-30 9.77775e-14 -0)
(-3.84126e-30 2.49756e-14 -0)
(-9.62564e-31 3.61687e-14 -0)
(3.80883e-28 -8.50466e-13 -0)
(3.24656e-31 4.14014e-14 0)
(9.09812e-30 -1.86764e-13 -0)
(1.53058e-30 -6.99873e-14 -0)
(-7.41103e-30 -6.79553e-14 0)
(-5.27508e-30 -4.5639e-14 0)
(-1.49973e-30 -6.42378e-14 0)
(5.38538e-30 -9.75773e-14 -0)
(4.77489e-30 -5.61207e-14 -0)
(2.13464e-30 -5.91553e-14 -0)
(1.88725e-30 -5.29671e-14 -0)
(2.60102e-30 -5.36124e-14 -0)
(1.29864e-30 -3.12118e-14 -0)
(1.81109e-31 -2.43177e-14 -0)
(-7.21176e-31 1.03795e-14 -0)
(3.10257e-30 -2.78901e-14 -0)
(5.45076e-31 -8.84434e-15 -0)
(5.97418e-31 -2.62034e-14 -0)
(1.84074e-30 -2.60557e-14 -0)
(2.15087e-30 -6.46041e-14 -0)
)
;

boundaryField
{
    movingWall
    {
        type            calculated;
        value           nonuniform List<vector> 
20
(
(0 -2.53172e-12 -0)
(0 2.2654e-13 -0)
(0 -5.74345e-13 -0)
(0 -1.93413e-13 -0)
(0 -2.3579e-13 -0)
(0 -2.57882e-13 -0)
(0 -3.38194e-13 -0)
(0 -3.88837e-13 -0)
(0 -2.23955e-13 -0)
(0 -2.71399e-13 -0)
(0 -2.20802e-13 -0)
(0 -2.21447e-13 -0)
(0 -9.29246e-14 -0)
(0 -1.30439e-13 -0)
(0 -7.84383e-14 -0)
(0 -1.34012e-13 -0)
(0 -8.84434e-15 -0)
(0 -4.35073e-14 -0)
(0 -8.77685e-14 -0)
(0 -1.43621e-13 -0)
)
;
    }
    fixedWalls
    {
        type            calculated;
        value           nonuniform List<vector> 
60
(
(0 -1.12442e-12 -0)
(0 1.5265e-13 -0)
(0 1.47763e-12 -0)
(0 -1.09432e-12 -0)
(0 3.61383e-13 -0)
(0 1.48969e-12 -0)
(0 -5.18304e-13 -0)
(0 -9.58333e-13 -0)
(0 1.01534e-12 -0)
(0 1.12103e-12 -0)
(0 -1.55704e-12 -0)
(0 -6.30446e-13 -0)
(0 9.18471e-13 -0)
(0 -7.84999e-14 -0)
(0 -2.65695e-13 -0)
(0 -1.3248e-13 -0)
(0 -9.52558e-13 -0)
(0 -6.10955e-13 -0)
(0 1.44527e-12 -0)
(0 -7.15326e-13 -0)
(0 -2.9891e-14 -0)
(0 4.95513e-14 -0)
(0 -4.46237e-14 -0)
(0 8.84172e-15 -0)
(0 -3.29907e-14 -0)
(0 3.56855e-14 -0)
(0 -2.03952e-14 -0)
(0 2.84633e-14 -0)
(0 -2.06834e-14 -0)
(0 3.32718e-15 -0)
(0 -2.90818e-15 -0)
(0 -5.47106e-14 -0)
(0 -2.0885e-14 -0)
(0 -3.26414e-14 -0)
(0 -2.38436e-14 -0)
(0 -5.29577e-14 -0)
(0 -1.16468e-14 -0)
(0 2.60663e-14 -0)
(0 4.35648e-14 -0)
(0 -6.75274e-14 -0)
(0 1.22831e-12 -0)
(0 4.11388e-13 -0)
(0 4.50976e-13 -0)
(0 2.44465e-13 -0)
(0 1.92139e-13 -0)
(0 2.61053e-13 -0)
(0 2.17981e-13 -0)
(0 2.28635e-13 -0)
(0 1.87289e-13 -0)
(0 1.3459e-13 -0)
(0 1.70099e-13 -0)
(0 2.60804e-13 -0)
(0 1.29722e-13 -0)
(0 1.64392e-13 -0)
(0 1.65741e-13 -0)
(0 6.04852e-14 -0)
(0 2.72537e-14 -0)
(0 4.6059e-15 -0)
(0 7.52765e-14 -0)
(0 -8.55004e-14 -0)
)
;
    }
    frontAndBack
    {
        type            empty;
    }
}


// ************************************************************************* //
