/*--------------------------------*- C++ -*----------------------------------*\
| =========                 |                                                 |
| \\      /  F ield         | OpenFOAM: The Open Source CFD Toolbox           |
|  \\    /   O peration     | Version:  2506                                  |
|   \\  /    A nd           | Website:  www.openfoam.com                      |
|    \\/     M anipulation  |                                                 |
\*---------------------------------------------------------------------------*/
FoamFile
{
    version     2.0;
    format      ascii;
    arch        "LSB;label=32;scalar=64";
    class       volScalarField;
    location    "7.625";
    object      QField;
}
// * * * * * * * * * * * * * * * * * * * * * * * * * * * * * * * * * * * * * //

dimensions      [0 0 -2 0 0 0 0];

internalField   nonuniform List<scalar> 
400
(
1.07934e-25
-1.06795e-26
0
-1.18172e-27
3.9312e-28
9.1347e-29
-1.43491e-28
1.78623e-28
1.2717e-28
4.85065e-29
-1.91048e-28
-3.43524e-28
0
0
-6.00734e-28
-8.44611e-28
-3.23515e-28
-2.51295e-29
2.19535e-28
-1.7984e-28
2.70823e-25
3.23769e-26
-2.70468e-27
-3.8643e-28
-5.27705e-28
-4.82852e-28
3.20914e-28
-5.13221e-28
8.11587e-28
-5.36078e-28
-4.64306e-30
-2.39891e-30
-1.10336e-28
3.69911e-28
-3.32553e-30
-1.28225e-27
-1.05759e-29
-3.20241e-28
2.01881e-28
-1.28681e-27
1.03823e-25
-1.22699e-26
8.69295e-27
-9.93715e-28
1.0185e-27
3.02277e-27
1.1374e-27
-9.77626e-28
-1.0089e-27
4.01256e-28
1.17872e-27
-1.22062e-29
-9.41258e-28
1.96623e-28
3.89139e-28
-2.81968e-28
0
-5.26634e-28
0
0
2.27912e-26
-3.25731e-26
2.40783e-28
-6.74352e-28
0
0
-2.48774e-27
-2.21852e-27
3.67511e-28
1.66698e-29
-3.43773e-28
6.62584e-28
8.0029e-28
1.88639e-28
7.64433e-29
2.62758e-28
4.13437e-28
-2.89051e-28
7.08425e-29
-5.75491e-28
1.72297e-25
6.4384e-27
1.62112e-27
-5.78306e-28
6.14311e-28
3.02763e-27
1.91049e-27
-5.83147e-28
-3.29755e-27
-1.24147e-27
0
4.27158e-28
8.44248e-29
0
-2.59586e-28
-1.02713e-27
5.77524e-28
3.94776e-28
6.46694e-28
-3.70467e-29
3.34719e-26
3.13646e-26
-1.11789e-27
2.75188e-28
1.86639e-27
8.12752e-28
1.18764e-27
1.18869e-28
0
8.85884e-28
3.14347e-28
-1.39737e-28
-4.38356e-29
0
-1.1083e-28
-6.15568e-28
0
-8.03025e-28
1.0738e-28
1.2785e-28
-1.4898e-25
-9.37826e-27
1.00481e-27
2.92694e-27
1.74871e-27
-5.63881e-29
-2.08859e-27
-1.35231e-27
-1.09227e-27
-8.02665e-28
5.95176e-28
7.57956e-28
1.40321e-28
-5.50524e-28
-2.66253e-28
2.57268e-28
0
7.57738e-28
0
-2.83924e-28
-4.54757e-26
2.32402e-26
-8.53144e-27
3.9487e-28
-7.28485e-28
0
1.66287e-27
-1.55236e-27
-9.66521e-28
0
0
-2.6377e-28
0
-4.04509e-28
0
3.97201e-28
1.06765e-27
-3.19067e-28
-1.16611e-27
-1.53864e-28
-2.64407e-26
-1.47626e-26
-3.92505e-28
1.73814e-27
8.13867e-28
7.30092e-28
1.4696e-27
-1.45133e-27
-1.95583e-27
-1.75598e-27
-4.28196e-28
7.44611e-28
1.54418e-27
1.29447e-27
2.05507e-27
-7.18423e-28
-1.55563e-28
-1.06654e-27
0
1.06731e-28
7.31966e-26
5.98611e-26
-7.40255e-27
6.49361e-28
-2.41652e-28
3.26355e-28
-1.47794e-28
4.49812e-28
6.01792e-28
1.55215e-28
-2.18445e-29
-7.04858e-28
0
-1.05844e-27
-6.24276e-29
-8.33153e-28
2.12326e-28
-1.20171e-28
0
-2.14717e-28
-9.06057e-26
4.37141e-26
-4.85173e-27
1.68604e-27
3.14437e-29
-3.15475e-28
-3.4153e-29
7.97258e-30
-5.85536e-28
1.12061e-27
0
-5.01936e-28
-1.19379e-28
-4.49007e-28
1.71747e-27
0
-9.15795e-28
0
1.87003e-28
-4.12013e-28
-1.73038e-25
1.2639e-27
2.86881e-28
9.67259e-29
-6.81157e-28
-6.00398e-28
-8.17272e-29
-5.78916e-28
-3.59695e-28
0
2.42403e-28
0
7.90752e-29
-5.62045e-28
-3.6996e-28
-2.24883e-28
0
8.67028e-28
-1.67516e-28
-2.01319e-28
6.17725e-27
8.85316e-27
-2.20051e-27
1.51781e-27
-6.11627e-28
-4.7122e-28
-2.58419e-28
-9.70532e-28
-2.88452e-28
1.35288e-28
-1.45744e-28
0
-4.2055e-28
0
9.94115e-29
0
0
3.12607e-28
0
-8.02932e-28
1.88039e-26
-4.41799e-27
-1.10933e-27
-1.83318e-28
6.91245e-28
8.40347e-28
0
0
0
0
0
0
3.93678e-28
1.85582e-27
7.56115e-28
1.24603e-29
1.97863e-31
3.32501e-28
-2.91226e-28
-8.49369e-28
-8.11285e-27
-5.4872e-27
-3.22381e-27
-6.16421e-28
-6.15278e-29
-6.92831e-29
-6.13962e-28
-2.52724e-28
2.25002e-28
4.16367e-28
-7.3053e-29
-2.89702e-27
-1.46536e-27
-4.28323e-28
-6.67303e-28
4.47754e-28
4.35422e-28
-6.07116e-28
4.41094e-28
-8.63072e-28
-7.21278e-26
-1.42989e-26
-3.40544e-27
1.35293e-27
8.12409e-29
-2.67714e-28
3.21917e-28
-6.75609e-28
3.18278e-28
5.37521e-28
-1.37652e-28
-2.37715e-28
-9.50995e-28
7.60955e-28
0
4.31557e-28
-2.28662e-28
0
4.50506e-28
1.78602e-28
6.6177e-26
-4.8898e-27
1.32082e-27
0
-3.59601e-28
-4.25444e-29
3.73311e-28
6.10901e-28
9.17702e-28
3.37173e-27
-7.42422e-28
-3.64424e-28
3.70524e-28
1.61618e-29
-8.60952e-29
-5.35286e-29
-4.96869e-28
0
-1.70321e-29
-6.23335e-28
1.03282e-25
-3.83364e-26
1.11916e-29
-3.66898e-27
0
-9.51709e-28
3.14367e-28
3.54107e-28
-2.2344e-27
6.68956e-29
-1.77737e-27
-7.86904e-28
-4.47245e-28
0
7.29575e-28
2.93163e-28
-7.54141e-28
-2.59595e-29
-1.75094e-27
0
7.56769e-26
-7.27073e-27
-1.41865e-26
-1.03363e-27
-3.25797e-27
1.22715e-27
2.11553e-27
2.40839e-27
-1.49569e-27
-1.12852e-27
1.37698e-27
1.09133e-27
-2.13293e-28
-1.37097e-27
-4.51873e-28
-5.35093e-28
-2.36489e-28
1.33864e-27
-5.7719e-29
-9.78026e-28
-1.26276e-26
-3.93584e-26
4.14852e-28
-1.26213e-27
3.21911e-28
-9.0804e-28
-1.27276e-27
-1.90025e-27
-7.07612e-28
2.6808e-28
-1.80266e-28
-6.77706e-28
-5.63436e-28
-7.55509e-29
0
-3.54819e-28
0
1.67212e-28
-2.84438e-29
2.38705e-28
)
;

boundaryField
{
    movingWall
    {
        type            calculated;
        value           nonuniform List<scalar> 
20
(
-1.13662e-26
-9.1048e-27
3.97381e-28
2.09126e-27
1.86965e-27
-3.53695e-27
-6.32022e-27
-4.93208e-27
-4.98238e-28
1.31767e-27
-6.62306e-28
-6.58715e-28
-8.63549e-29
-3.71348e-28
-9.21886e-28
-1.1015e-27
0
2.07148e-28
-9.32045e-29
6.62824e-28
)
;
    }
    fixedWalls
    {
        type            calculated;
        value           nonuniform List<scalar> 
60
(
3.78797e-25
1.08733e-24
5.28584e-25
4.57153e-26
6.09341e-25
1.61326e-25
-4.4808e-25
-2.77045e-25
-1.04919e-25
2.39177e-25
-4.64206e-26
-3.9696e-25
2.42899e-26
1.39958e-26
-1.293e-25
-3.58288e-25
2.74949e-25
4.48938e-25
-1.67243e-25
-3.92803e-26
-8.81796e-28
-1.78339e-27
0
-9.25107e-28
1.5953e-28
9.27339e-29
-1.81872e-28
4.00152e-29
-1.74059e-28
-6.44501e-28
-1.33037e-27
-1.75555e-28
-1.31552e-27
-1.61943e-27
-2.13356e-27
-7.73791e-28
-4.18998e-28
2.89808e-28
-5.77081e-28
-7.61823e-29
2.25061e-26
1.61993e-26
3.05823e-27
1.30291e-27
2.57635e-27
-1.17387e-27
-1.659e-27
1.46328e-27
1.67245e-27
5.22412e-28
-1.54978e-27
-1.98164e-27
-4.66916e-28
-2.35254e-27
-4.05577e-27
-1.43194e-27
-1.9988e-28
-8.08989e-28
-9.03225e-28
-2.94649e-28
)
;
    }
    frontAndBack
    {
        type            empty;
    }
}


// ************************************************************************* //
