/*--------------------------------*- C++ -*----------------------------------*\
| =========                 |                                                 |
| \\      /  F ield         | OpenFOAM: The Open Source CFD Toolbox           |
|  \\    /   O peration     | Version:  2506                                  |
|   \\  /    A nd           | Website:  www.openfoam.com                      |
|    \\/     M anipulation  |                                                 |
\*---------------------------------------------------------------------------*/
FoamFile
{
    version     2.0;
    format      ascii;
    arch        "LSB;label=32;scalar=64";
    class       volScalarField;
    location    "7.625";
    object      Uy;
}
// * * * * * * * * * * * * * * * * * * * * * * * * * * * * * * * * * * * * * //

dimensions      [0 1 -1 0 0 0 0];

internalField   nonuniform List<scalar> 
400
(
2.13343e-15
2.38364e-16
2.39993e-16
1.69499e-16
1.57885e-17
2.44628e-17
6.97979e-17
6.50963e-17
3.8977e-18
-3.14331e-17
-9.73417e-18
4.3929e-17
4.6762e-17
7.89757e-17
1.79198e-16
1.97921e-16
1.84357e-17
-7.46161e-17
-2.76233e-17
6.07978e-17
-1.12701e-15
7.23672e-16
8.27283e-17
1.60592e-16
4.25214e-17
6.32477e-17
-1.68589e-17
-4.70603e-17
4.57144e-17
2.71693e-17
-2.5508e-17
2.63128e-17
-2.5803e-17
5.95936e-18
4.24335e-17
1.13685e-16
1.0092e-16
6.53449e-17
-5.33709e-17
-1.16471e-17
-2.60987e-15
7.49565e-16
9.52903e-18
9.82148e-17
8.61593e-17
2.30626e-17
-9.97083e-17
-6.08629e-17
8.06318e-17
9.51223e-17
-1.48008e-17
-3.16985e-17
-1.32997e-17
1.65693e-17
-3.74801e-17
-9.70979e-17
1.45339e-17
4.35319e-17
-6.48637e-17
-1.11559e-16
1.71936e-15
1.16639e-17
1.32346e-16
1.00497e-16
6.06725e-17
4.68719e-17
1.0402e-16
1.19929e-16
-5.00223e-17
-1.56587e-17
4.69053e-17
1.35811e-17
1.28389e-16
1.55925e-16
1.97984e-16
1.2073e-16
1.41889e-17
-3.18018e-17
-6.98152e-17
-4.56583e-17
3.16271e-16
-7.69573e-16
-1.33784e-16
-1.50577e-16
-4.96613e-17
7.60637e-17
3.22671e-16
3.48382e-16
1.72692e-16
9.81974e-17
6.32339e-17
-3.22449e-17
-2.73275e-18
-1.66713e-17
2.59178e-17
3.82272e-17
1.06919e-16
9.68524e-17
-3.87274e-17
-1.47141e-17
-3.31764e-15
3.22123e-16
-1.66699e-16
-9.03039e-17
-3.56236e-17
1.15992e-16
2.64229e-16
3.35072e-16
3.08084e-16
1.03895e-16
2.1642e-17
-1.20792e-17
-3.01251e-17
-8.03607e-18
4.73154e-17
-3.25858e-17
-2.30044e-17
-1.81652e-17
5.72062e-17
2.1451e-17
-1.95017e-16
4.53359e-17
-1.11827e-16
1.00464e-17
8.69445e-17
1.55169e-16
1.11073e-16
1.32714e-16
1.15536e-16
1.61808e-17
3.09461e-17
7.1076e-17
1.24158e-16
1.07153e-16
6.68067e-17
1.13929e-16
1.70065e-17
-1.9023e-18
8.79746e-17
1.67747e-17
3.14122e-15
-8.31199e-16
1.06881e-16
-4.3119e-18
4.4828e-17
2.28032e-17
-6.49114e-17
-1.81694e-16
-9.48918e-17
6.16666e-17
7.29086e-17
8.71112e-17
9.84894e-17
7.49044e-18
-1.19634e-17
1.1213e-16
3.68837e-17
-8.48167e-17
-6.0882e-17
3.39558e-18
-9.79804e-16
-2.07785e-17
5.48935e-17
-1.15298e-17
-7.33586e-17
-7.15826e-17
-1.2723e-16
-1.68636e-16
-6.27558e-17
6.70743e-17
9.92047e-17
1.19733e-16
3.05265e-17
-2.26924e-17
-8.88669e-17
-1.35993e-16
-1.16771e-16
-1.19617e-16
-5.5431e-17
1.60541e-17
-3.41244e-15
7.89082e-16
-9.33513e-19
9.73441e-17
5.89595e-17
7.50556e-17
8.90604e-17
9.58557e-17
1.4804e-16
1.75475e-16
1.76672e-16
1.67416e-16
4.66485e-17
-8.27533e-17
-1.07806e-16
-6.22526e-17
2.45633e-17
1.9914e-17
-1.97718e-17
-5.94447e-17
3.62156e-15
-5.2351e-16
9.07853e-17
-8.73699e-17
-1.16561e-16
-9.12368e-17
-5.83665e-17
-1.20643e-16
-7.95931e-17
4.72325e-17
1.27123e-16
9.34972e-17
-5.93306e-17
-1.40712e-16
-6.58352e-17
1.76963e-17
-3.07725e-17
-4.13803e-17
-1.87793e-17
-7.50331e-17
1.16954e-15
2.59739e-17
-1.6071e-17
1.53955e-18
-5.17566e-17
-4.15777e-17
3.86507e-17
7.75705e-17
2.83129e-17
7.16655e-17
1.03518e-16
-1.77653e-17
-9.24779e-17
-3.17849e-18
-5.02364e-17
-1.3967e-16
-1.44371e-16
-4.96899e-17
1.55675e-17
-1.25127e-18
-2.29618e-15
5.06668e-16
3.78651e-17
1.00745e-16
1.77858e-16
1.30271e-16
9.09337e-17
8.26013e-17
5.31109e-17
2.93913e-17
2.81547e-17
2.96603e-17
4.48066e-17
5.20822e-18
-6.42247e-17
-6.5271e-17
-7.13545e-17
-1.15393e-16
-1.2902e-16
-5.22125e-17
9.41639e-16
-5.07725e-16
2.42971e-17
-8.77753e-17
9.05945e-17
3.9737e-17
-6.44222e-17
-6.36382e-17
-3.72458e-18
-1.26969e-17
4.9479e-17
1.33614e-16
8.71297e-17
-1.16282e-17
-8.40393e-17
-1.15079e-16
-1.0266e-16
-1.15152e-16
-1.63996e-16
-1.49366e-16
-6.23254e-16
4.65722e-16
4.85448e-17
1.68378e-16
1.32638e-16
1.45678e-16
6.65581e-17
-4.94113e-17
-2.66806e-17
6.4287e-18
2.45235e-17
-2.55522e-18
3.04837e-17
-1.5852e-17
-4.85278e-17
-9.79158e-17
3.40682e-17
6.27265e-17
-2.15768e-17
-1.27372e-16
8.73302e-16
-2.80785e-16
1.83254e-16
6.79811e-17
-5.50639e-19
2.69565e-17
4.88339e-17
-1.26323e-17
-4.5979e-17
-1.29765e-16
-2.44289e-16
-2.28618e-16
-1.56588e-16
-1.51414e-16
-9.8841e-17
-5.53936e-17
-1.92327e-17
-2.45524e-18
-1.26075e-18
-6.46317e-17
1.36496e-15
-1.38553e-17
1.18574e-16
1.16107e-16
6.55755e-17
5.39681e-17
4.98794e-17
1.91695e-16
2.0744e-16
-2.31322e-18
-1.49148e-16
-4.44025e-17
-1.65965e-16
-1.81102e-16
-1.68946e-16
-1.6522e-16
-1.5617e-16
-6.2753e-17
6.1527e-17
3.86457e-17
1.39186e-15
-3.66878e-16
2.07391e-17
-4.87071e-17
5.31964e-17
2.92972e-17
-6.1855e-17
-5.75012e-17
3.46626e-18
5.26353e-17
2.96161e-17
-6.05341e-17
-1.84168e-16
-1.84172e-16
-1.20543e-16
-4.95895e-17
2.389e-18
-2.17112e-17
5.02297e-18
6.51658e-17
-2.17461e-17
-7.48025e-16
-4.15434e-17
-2.38526e-16
4.70826e-17
4.80034e-17
-6.61016e-17
-2.12161e-16
-2.14191e-16
-2.99328e-17
-6.01617e-18
-1.89561e-16
-2.07331e-16
-1.10869e-16
-5.4982e-17
-2.75134e-17
1.08228e-17
-4.79077e-17
-1.53801e-16
-2.66132e-17
-4.47852e-16
7.84167e-18
-4.87144e-17
-2.18695e-17
1.09057e-16
1.15583e-16
2.33465e-17
-5.51909e-17
-8.50826e-17
-3.60853e-17
-3.56305e-17
-4.85152e-17
-4.16074e-17
-7.4476e-18
-6.94808e-17
-1.11243e-16
-6.16299e-17
-2.27993e-17
-7.06465e-17
-3.32932e-17
)
;

boundaryField
{
    movingWall
    {
        type            calculated;
        value           uniform -0;
    }
    fixedWalls
    {
        type            calculated;
        value           uniform -0;
    }
    frontAndBack
    {
        type            empty;
    }
}


// ************************************************************************* //
