/*--------------------------------*- C++ -*----------------------------------*\
| =========                 |                                                 |
| \\      /  F ield         | OpenFOAM: The Open Source CFD Toolbox           |
|  \\    /   O peration     | Version:  2506                                  |
|   \\  /    A nd           | Website:  www.openfoam.com                      |
|    \\/     M anipulation  |                                                 |
\*---------------------------------------------------------------------------*/
FoamFile
{
    version     2.0;
    format      ascii;
    arch        "LSB;label=32;scalar=64";
    class       volVectorField;
    location    "7.625";
    object      vorticityField;
}
// * * * * * * * * * * * * * * * * * * * * * * * * * * * * * * * * * * * * * //

dimensions      [0 0 -1 0 0 0 0];

internalField   nonuniform List<vector> 
400
(
(0 -0 5.0823e-13)
(0 -0 -2.70659e-13)
(0 -0 -6.88652e-15)
(0 -0 -4.95255e-14)
(0 -0 -4.16086e-14)
(0 -0 -2.17041e-14)
(0 -0 4.06335e-15)
(0 -0 -3.36951e-14)
(0 -0 -3.6758e-14)
(0 -0 -2.84682e-14)
(0 -0 7.53621e-15)
(0 -0 -2.14554e-14)
(0 -0 3.50467e-15)
(0 -0 1.32436e-14)
(0 -0 1.18946e-14)
(0 -0 -1.60763e-14)
(0 -0 -2.72537e-14)
(0 -0 -4.6059e-15)
(0 -0 1.35414e-14)
(0 -0 5.08927e-14)
(0 -0 2.57821e-13)
(0 -0 1.48079e-13)
(0 -0 2.50071e-14)
(0 -0 -4.02069e-15)
(0 -0 4.44757e-14)
(0 -0 7.53771e-14)
(0 -0 4.31793e-14)
(0 -0 3.33624e-14)
(0 -0 8.87381e-14)
(0 -0 1.99828e-14)
(0 -0 5.41245e-14)
(0 -0 8.12857e-14)
(0 -0 5.21748e-14)
(0 -0 6.10338e-14)
(0 -0 6.49827e-14)
(0 -0 6.00588e-14)
(0 -0 -4.83402e-15)
(0 -0 -1.54291e-14)
(0 -0 -7.6992e-15)
(0 -0 -4.77083e-14)
(0 -0 -6.19712e-13)
(0 -0 2.0773e-13)
(0 -0 -2.0066e-13)
(0 -0 -1.00757e-13)
(0 -0 -1.4304e-13)
(0 -0 -1.81217e-13)
(0 -0 -1.43918e-13)
(0 -0 -3.61761e-14)
(0 -0 -6.57166e-14)
(0 -0 -6.37534e-14)
(0 -0 -1.21102e-13)
(0 -0 -8.11651e-14)
(0 -0 -1.03593e-13)
(0 -0 -8.37332e-14)
(0 -0 -1.19787e-13)
(0 -0 -4.90087e-14)
(0 -0 1.4063e-14)
(0 -0 -7.93976e-15)
(0 -0 -1.55091e-14)
(0 -0 1.76423e-14)
(0 -0 5.79678e-13)
(0 -0 -2.12911e-13)
(0 -0 3.59884e-14)
(0 -0 -7.16732e-15)
(0 -0 -5.36253e-15)
(0 -0 4.3347e-15)
(0 -0 -1.97994e-14)
(0 -0 -1.54042e-14)
(0 -0 -4.06638e-14)
(0 -0 9.69276e-15)
(0 -0 3.0029e-14)
(0 -0 8.94635e-14)
(0 -0 6.84445e-14)
(0 -0 3.40646e-14)
(0 -0 2.35855e-14)
(0 -0 -7.25896e-14)
(0 -0 -4.23582e-14)
(0 -0 -8.40041e-15)
(0 -0 -1.38565e-15)
(0 -0 -1.55577e-14)
(0 -0 -5.33221e-13)
(0 -0 3.63097e-14)
(0 -0 6.18996e-14)
(0 -0 6.26224e-14)
(0 -0 4.97691e-14)
(0 -0 1.18548e-13)
(0 -0 8.1442e-14)
(0 -0 -1.49979e-14)
(0 -0 2.91916e-14)
(0 -0 4.32643e-14)
(0 -0 -1.30442e-14)
(0 -0 -6.08068e-14)
(0 -0 5.57675e-14)
(0 -0 2.86506e-15)
(0 -0 3.25949e-14)
(0 -0 3.52052e-14)
(0 -0 8.71777e-14)
(0 -0 -4.16697e-14)
(0 -0 -3.82617e-14)
(0 -0 3.24492e-14)
(0 -0 -4.62182e-13)
(0 -0 4.77725e-13)
(0 -0 -1.41377e-14)
(0 -0 6.73176e-14)
(0 -0 1.2905e-13)
(0 -0 5.70903e-14)
(0 -0 7.61181e-14)
(0 -0 3.14905e-14)
(0 -0 -2.31178e-14)
(0 -0 -8.28543e-14)
(0 -0 -3.87024e-14)
(0 -0 -3.22818e-14)
(0 -0 -1.08016e-13)
(0 -0 7.74405e-15)
(0 -0 -2.45497e-15)
(0 -0 -7.03198e-15)
(0 -0 1.44205e-15)
(0 -0 8.02106e-15)
(0 -0 3.10667e-14)
(0 -0 -3.49708e-14)
(0 -0 5.81343e-13)
(0 -0 8.31902e-15)
(0 -0 1.31996e-13)
(0 -0 1.55402e-13)
(0 -0 1.50037e-13)
(0 -0 8.3728e-14)
(0 -0 1.3328e-13)
(0 -0 1.08867e-13)
(0 -0 -1.16533e-14)
(0 -0 9.99612e-14)
(0 -0 1.1391e-13)
(0 -0 9.06364e-14)
(0 -0 1.39133e-13)
(0 -0 7.558e-14)
(0 -0 8.19928e-14)
(0 -0 2.2125e-14)
(0 -0 -1.15831e-14)
(0 -0 8.8412e-14)
(0 -0 1.8677e-15)
(0 -0 1.66301e-14)
(0 -0 -6.71534e-14)
(0 -0 -3.84749e-13)
(0 -0 1.37359e-15)
(0 -0 -6.04154e-14)
(0 -0 -1.05709e-13)
(0 -0 -1.09739e-14)
(0 -0 -1.01765e-13)
(0 -0 -3.01031e-14)
(0 -0 2.4336e-14)
(0 -0 1.678e-14)
(0 -0 2.54447e-15)
(0 -0 2.55808e-15)
(0 -0 -7.96208e-15)
(0 -0 -3.81503e-14)
(0 -0 1.04639e-14)
(0 -0 8.61999e-14)
(0 -0 -7.39047e-14)
(0 -0 -9.77657e-15)
(0 -0 8.82123e-15)
(0 -0 -2.13564e-14)
(0 -0 -7.23475e-13)
(0 -0 1.30575e-13)
(0 -0 -1.07495e-13)
(0 -0 -1.4835e-13)
(0 -0 -1.41531e-13)
(0 -0 -1.40912e-13)
(0 -0 -1.18126e-13)
(0 -0 -1.01973e-13)
(0 -0 -3.53402e-15)
(0 -0 -9.22242e-14)
(0 -0 -7.60493e-14)
(0 -0 -1.15288e-13)
(0 -0 -1.22663e-13)
(0 -0 -1.2036e-13)
(0 -0 -1.46855e-13)
(0 -0 -8.41056e-14)
(0 -0 -5.25725e-14)
(0 -0 -7.51811e-14)
(0 -0 1.35671e-14)
(0 -0 3.10427e-14)
(0 -0 -1.83904e-14)
(0 -0 4.76676e-13)
(0 -0 3.92465e-14)
(0 -0 1.1441e-13)
(0 -0 1.06191e-13)
(0 -0 1.1143e-13)
(0 -0 1.105e-13)
(0 -0 6.0108e-14)
(0 -0 8.92771e-14)
(0 -0 5.70733e-14)
(0 -0 2.62991e-14)
(0 -0 4.12078e-14)
(0 -0 -2.5017e-14)
(0 -0 1.16597e-14)
(0 -0 2.05007e-15)
(0 -0 1.32369e-14)
(0 -0 6.24268e-14)
(0 -0 2.26715e-14)
(0 -0 -7.93587e-15)
(0 -0 -1.91834e-14)
(0 -0 4.18225e-13)
(0 -0 -4.88603e-13)
(0 -0 -6.48062e-14)
(0 -0 -1.0205e-13)
(0 -0 -8.17019e-14)
(0 -0 -4.83906e-14)
(0 -0 -8.42558e-14)
(0 -0 -2.92277e-14)
(0 -0 -3.74225e-14)
(0 -0 7.48817e-14)
(0 -0 4.62647e-15)
(0 -0 -1.86453e-14)
(0 -0 -5.0526e-14)
(0 -0 2.64546e-14)
(0 -0 1.24261e-13)
(0 -0 3.50627e-15)
(0 -0 -5.90766e-15)
(0 -0 1.19932e-15)
(0 -0 -3.04703e-14)
(0 -0 -1.77238e-14)
(0 -0 2.82182e-13)
(0 -0 -1.99876e-13)
(0 -0 -2.44343e-15)
(0 -0 -3.06736e-14)
(0 -0 -3.14168e-14)
(0 -0 9.04073e-15)
(0 -0 3.90199e-14)
(0 -0 2.60713e-14)
(0 -0 -5.90504e-16)
(0 -0 7.5205e-15)
(0 -0 -3.60481e-14)
(0 -0 -1.95996e-14)
(0 -0 5.56688e-14)
(0 -0 5.84343e-14)
(0 -0 1.3456e-14)
(0 -0 -9.41346e-15)
(0 -0 8.99796e-15)
(0 -0 7.0204e-14)
(0 -0 3.19489e-14)
(0 -0 5.27785e-14)
(0 -0 -1.78951e-13)
(0 -0 3.1472e-13)
(0 -0 1.36178e-14)
(0 -0 1.2242e-13)
(0 -0 5.71627e-14)
(0 -0 4.55176e-14)
(0 -0 4.94431e-14)
(0 -0 5.04278e-14)
(0 -0 4.88891e-14)
(0 -0 -5.67057e-14)
(0 -0 2.7132e-14)
(0 -0 1.66519e-15)
(0 -0 -2.95503e-14)
(0 -0 -1.09031e-14)
(0 -0 -3.4153e-14)
(0 -0 -7.12982e-16)
(0 -0 -5.01217e-15)
(0 -0 -5.99767e-14)
(0 -0 6.31802e-15)
(0 -0 1.81233e-14)
(0 -0 -2.54764e-13)
(0 -0 -3.75241e-14)
(0 -0 1.48899e-14)
(0 -0 6.62974e-15)
(0 -0 6.69613e-14)
(0 -0 -6.97118e-14)
(0 -0 -1.03375e-14)
(0 -0 6.06976e-15)
(0 -0 5.09412e-15)
(0 -0 5.32036e-15)
(0 -0 1.4631e-14)
(0 -0 3.76507e-15)
(0 -0 -4.16292e-14)
(0 -0 -1.25537e-13)
(0 -0 -9.16602e-14)
(0 -0 -5.60722e-14)
(0 -0 -2.71124e-14)
(0 -0 -6.03437e-14)
(0 -0 -3.42146e-15)
(0 -0 4.23114e-15)
(0 -0 4.99243e-13)
(0 -0 1.29698e-14)
(0 -0 7.86859e-14)
(0 -0 3.55144e-14)
(0 -0 2.48351e-14)
(0 -0 -6.60803e-15)
(0 -0 -1.9509e-14)
(0 -0 1.77812e-14)
(0 -0 8.68992e-14)
(0 -0 8.64356e-14)
(0 -0 8.04168e-14)
(0 -0 8.19112e-14)
(0 -0 1.07091e-13)
(0 -0 4.6309e-14)
(0 -0 7.31088e-14)
(0 -0 6.24697e-14)
(0 -0 4.31693e-14)
(0 -0 4.86456e-14)
(0 -0 -1.90098e-14)
(0 -0 -1.22102e-14)
(0 -0 -1.57589e-13)
(0 -0 -6.90048e-14)
(0 -0 -4.64386e-14)
(0 -0 -9.96956e-14)
(0 -0 -1.12523e-13)
(0 -0 -4.92717e-14)
(0 -0 -8.5274e-14)
(0 -0 -1.45007e-13)
(0 -0 -1.47239e-13)
(0 -0 -4.69361e-14)
(0 -0 -9.12004e-14)
(0 -0 -1.83349e-14)
(0 -0 -4.64898e-14)
(0 -0 5.99848e-14)
(0 -0 9.60208e-15)
(0 -0 6.21709e-14)
(0 -0 5.95039e-14)
(0 -0 1.79719e-15)
(0 -0 -6.21764e-15)
(0 -0 3.36943e-14)
(0 -0 5.41686e-13)
(0 -0 -7.04281e-14)
(0 -0 1.48521e-13)
(0 -0 -5.29986e-15)
(0 -0 7.51013e-14)
(0 -0 2.55354e-14)
(0 -0 4.08778e-14)
(0 -0 6.99661e-14)
(0 -0 -7.3611e-14)
(0 -0 -1.44079e-13)
(0 -0 -4.20892e-15)
(0 -0 -5.58919e-14)
(0 -0 -4.0775e-14)
(0 -0 -5.45082e-14)
(0 -0 -5.26219e-14)
(0 -0 -5.29325e-14)
(0 -0 -4.39634e-14)
(0 -0 2.17697e-14)
(0 -0 1.01399e-14)
(0 -0 1.70878e-14)
(0 -0 1.56709e-13)
(0 -0 -1.91322e-13)
(0 -0 -2.23931e-14)
(0 -0 5.74558e-14)
(0 -0 7.80043e-15)
(0 -0 6.981e-14)
(0 -0 -8.67984e-15)
(0 -0 6.07422e-14)
(0 -0 1.19434e-13)
(0 -0 5.68251e-14)
(0 -0 4.28932e-14)
(0 -0 -2.13784e-14)
(0 -0 1.47412e-14)
(0 -0 6.36245e-15)
(0 -0 6.76684e-14)
(0 -0 6.65033e-14)
(0 -0 5.69979e-14)
(0 -0 5.44735e-14)
(0 -0 8.6877e-15)
(0 -0 -7.01888e-15)
(0 -0 -1.51354e-12)
(0 -0 7.93354e-14)
(0 -0 -2.20101e-13)
(0 -0 -9.95576e-14)
(0 -0 -7.97673e-14)
(0 -0 -1.19739e-13)
(0 -0 -1.07332e-13)
(0 -0 -1.77439e-13)
(0 -0 -9.01974e-14)
(0 -0 -3.33926e-14)
(0 -0 -1.24383e-13)
(0 -0 -7.43416e-14)
(0 -0 -1.92359e-14)
(0 -0 -1.18701e-14)
(0 -0 -4.58745e-14)
(0 -0 -7.47347e-14)
(0 -0 -5.62495e-14)
(0 -0 -9.77775e-14)
(0 -0 -2.49756e-14)
(0 -0 -3.61687e-14)
(0 -0 8.50466e-13)
(0 -0 -4.14014e-14)
(0 -0 1.86764e-13)
(0 -0 6.99873e-14)
(0 -0 6.79553e-14)
(0 -0 4.5639e-14)
(0 -0 6.42378e-14)
(0 -0 9.75773e-14)
(0 -0 5.61207e-14)
(0 -0 5.91553e-14)
(0 -0 5.29671e-14)
(0 -0 5.36124e-14)
(0 -0 3.12118e-14)
(0 -0 2.43177e-14)
(0 -0 -1.03795e-14)
(0 -0 2.78901e-14)
(0 -0 8.84434e-15)
(0 -0 2.62034e-14)
(0 -0 2.60557e-14)
(0 -0 6.46041e-14)
)
;

boundaryField
{
    movingWall
    {
        type            calculated;
        value           nonuniform List<vector> 
20
(
(0 -0 2.53172e-12)
(0 -0 -2.2654e-13)
(0 -0 5.74345e-13)
(0 -0 1.93413e-13)
(0 -0 2.3579e-13)
(0 -0 2.57882e-13)
(0 -0 3.38194e-13)
(0 -0 3.88837e-13)
(0 -0 2.23955e-13)
(0 -0 2.71399e-13)
(0 -0 2.20802e-13)
(0 -0 2.21447e-13)
(0 -0 9.29246e-14)
(0 -0 1.30439e-13)
(0 -0 7.84383e-14)
(0 -0 1.34012e-13)
(0 -0 8.84434e-15)
(0 -0 4.35073e-14)
(0 -0 8.77685e-14)
(0 -0 1.43621e-13)
)
;
    }
    fixedWalls
    {
        type            calculated;
        value           nonuniform List<vector> 
60
(
(0 -0 1.12442e-12)
(0 -0 -1.5265e-13)
(0 -0 -1.47763e-12)
(0 -0 1.09432e-12)
(0 -0 -3.61383e-13)
(0 -0 -1.48969e-12)
(0 -0 5.18304e-13)
(0 -0 9.58333e-13)
(0 -0 -1.01534e-12)
(0 -0 -1.12103e-12)
(0 -0 1.55704e-12)
(0 -0 6.30446e-13)
(0 -0 -9.18471e-13)
(0 -0 7.84999e-14)
(0 -0 2.65695e-13)
(0 -0 1.3248e-13)
(0 -0 9.52558e-13)
(0 -0 6.10955e-13)
(0 -0 -1.44527e-12)
(0 -0 7.15326e-13)
(0 -0 2.9891e-14)
(0 -0 -4.95513e-14)
(0 -0 4.46237e-14)
(0 -0 -8.84172e-15)
(0 -0 3.29907e-14)
(0 -0 -3.56855e-14)
(0 -0 2.03952e-14)
(0 -0 -2.84633e-14)
(0 -0 2.06834e-14)
(0 -0 -3.32718e-15)
(0 -0 2.90818e-15)
(0 -0 5.47106e-14)
(0 -0 2.0885e-14)
(0 -0 3.26414e-14)
(0 -0 2.38436e-14)
(0 -0 5.29577e-14)
(0 -0 1.16468e-14)
(0 -0 -2.60663e-14)
(0 -0 -4.35648e-14)
(0 -0 6.75274e-14)
(0 -0 -1.22831e-12)
(0 -0 -4.11388e-13)
(0 -0 -4.50976e-13)
(0 -0 -2.44465e-13)
(0 -0 -1.92139e-13)
(0 -0 -2.61053e-13)
(0 -0 -2.17981e-13)
(0 -0 -2.28635e-13)
(0 -0 -1.87289e-13)
(0 -0 -1.3459e-13)
(0 -0 -1.70099e-13)
(0 -0 -2.60804e-13)
(0 -0 -1.29722e-13)
(0 -0 -1.64392e-13)
(0 -0 -1.65741e-13)
(0 -0 -6.04852e-14)
(0 -0 -2.72537e-14)
(0 -0 -4.6059e-15)
(0 -0 -7.52765e-14)
(0 -0 8.55004e-14)
)
;
    }
    frontAndBack
    {
        type            empty;
    }
}


// ************************************************************************* //
