/*--------------------------------*- C++ -*----------------------------------*\
| =========                 |                                                 |
| \\      /  F ield         | OpenFOAM: The Open Source CFD Toolbox           |
|  \\    /   O peration     | Version:  2506                                  |
|   \\  /    A nd           | Website:  www.openfoam.com                      |
|    \\/     M anipulation  |                                                 |
\*---------------------------------------------------------------------------*/
FoamFile
{
    version     2.0;
    format      ascii;
    arch        "LSB;label=32;scalar=64";
    class       volScalarField;
    location    "3.375";
    object      divU;
}
// * * * * * * * * * * * * * * * * * * * * * * * * * * * * * * * * * * * * * //

dimensions      [0 0 -1 0 0 0 0];

internalField   nonuniform List<scalar> 
400
(
8.3946e-08
-8.86058e-07
1.38999e-07
-7.42614e-08
1.0403e-08
-4.54519e-09
1.07874e-09
-2.53138e-10
8.32344e-11
-1.80346e-11
6.25622e-12
-3.65002e-13
1.89507e-12
1.37545e-12
1.6054e-12
8.81637e-13
-1.10129e-12
-9.88049e-13
5.2051e-12
-4.87891e-13
-4.54514e-07
2.9515e-06
-5.20569e-07
2.68617e-07
-4.57851e-08
1.84315e-08
-4.77607e-09
1.22055e-09
-3.95975e-10
9.92433e-11
-2.82275e-11
8.07311e-12
-1.66403e-12
1.26914e-12
1.28427e-12
-6.52563e-13
-2.49417e-12
1.47055e-12
5.2503e-12
-1.19262e-12
7.93157e-07
-4.97521e-06
8.71732e-07
-4.5081e-07
7.58759e-08
-3.07184e-08
7.8452e-09
-2.01242e-09
6.59946e-10
-1.58775e-10
4.67331e-11
-1.26077e-11
4.23206e-12
-4.16088e-13
1.53048e-12
1.03636e-12
-1.95108e-12
-1.77217e-12
4.38629e-12
-8.13152e-14
-1.34536e-06
7.21503e-06
-1.27679e-06
6.5396e-07
-1.11164e-07
4.47287e-08
-1.14878e-08
2.95522e-09
-9.75047e-10
2.35436e-10
-6.96864e-11
1.90701e-11
-4.87396e-12
2.27585e-12
1.29682e-12
-8.056e-13
-2.61859e-12
1.87182e-12
5.29576e-12
-1.30104e-12
2.09654e-06
-9.48737e-06
1.68844e-06
-8.61187e-07
1.46676e-07
-5.93733e-08
1.50665e-08
-3.94597e-09
1.29853e-09
-3.15694e-10
9.03415e-11
-2.69279e-11
6.90605e-12
-1.7657e-12
1.44641e-12
8.14279e-13
-1.74784e-12
-1.97134e-12
3.79422e-12
1.6263e-13
-3.42243e-06
1.18096e-05
-2.12164e-06
1.0756e-06
-1.83293e-07
7.44744e-08
-1.89714e-08
4.91711e-09
-1.67157e-09
3.84927e-10
-1.21066e-10
3.15873e-11
-8.95181e-12
3.36495e-12
1.1435e-12
-1.33622e-12
-3.1196e-12
2.23832e-12
4.86032e-12
-1.16552e-12
6.40659e-06
-1.41554e-05
2.62769e-06
-1.29626e-06
2.22082e-07
-9.19925e-08
2.25504e-08
-6.20264e-09
2.00847e-09
-4.85084e-10
1.45332e-10
-4.08851e-11
1.09833e-11
-2.71083e-12
1.70205e-12
4.63314e-13
-1.68151e-12
-2.07511e-12
3.05879e-12
4.06576e-13
-9.25713e-06
1.56826e-05
-2.9888e-06
1.44183e-06
-2.53457e-07
1.04307e-07
-2.56401e-08
7.15764e-09
-2.30242e-09
5.61205e-10
-1.68806e-10
4.73243e-11
-1.23806e-11
4.98434e-12
1.12522e-12
-1.5902e-12
-3.52941e-12
2.52262e-12
4.25022e-12
-1.11131e-12
1.03405e-05
-1.62027e-05
3.13374e-06
-1.49696e-06
2.7223e-07
-1.1063e-07
2.77526e-08
-7.77391e-09
2.53112e-09
-6.13197e-10
1.91897e-10
-5.14688e-11
1.50502e-11
-3.2981e-12
2.07021e-12
9.43641e-14
-1.81051e-12
-1.87546e-12
2.18076e-12
5.96311e-13
-1.03771e-05
1.58223e-05
-3.07542e-06
1.46325e-06
-2.67712e-07
1.08717e-07
-2.72643e-08
7.70166e-09
-2.49275e-09
6.17232e-10
-1.87287e-10
5.33055e-11
-1.42198e-11
5.69434e-12
1.02014e-12
-2.09624e-12
-3.73763e-12
2.60118e-12
3.41747e-12
-8.67362e-13
1.00929e-05
-1.51758e-05
2.97015e-06
-1.40704e-06
2.60987e-07
-1.05491e-07
2.674e-08
-7.56919e-09
2.44905e-09
-6.10865e-10
1.87387e-10
-5.26102e-11
1.44533e-11
-3.52678e-12
1.90324e-12
-4.89464e-13
-2.04916e-12
-1.66537e-12
1.34212e-12
6.77626e-13
-9.40046e-06
1.40582e-05
-2.7491e-06
1.30297e-06
-2.41054e-07
9.7644e-08
-2.46661e-08
6.99344e-09
-2.26699e-09
5.63398e-10
-1.7421e-10
4.78093e-11
-1.43423e-11
4.88839e-12
7.9978e-13
-2.67823e-12
-4.22473e-12
2.43212e-12
2.56601e-12
-7.04731e-13
8.67197e-06
-1.29074e-05
2.5356e-06
-1.19809e-06
2.23755e-07
-9.02597e-08
2.29851e-08
-6.51917e-09
2.10028e-09
-5.32302e-10
1.59985e-10
-4.71828e-11
1.1353e-11
-3.48873e-12
1.34832e-12
-1.41002e-12
-2.3466e-12
-1.046e-12
5.70315e-13
5.14996e-13
-7.68161e-06
1.14241e-05
-2.23924e-06
1.05959e-06
-1.97027e-07
7.96451e-08
-2.02063e-08
5.72621e-09
-1.85244e-09
4.61593e-10
-1.44714e-10
3.77242e-11
-1.30653e-11
3.66126e-12
4.63707e-13
-3.01635e-12
-4.41199e-12
2.06511e-12
1.42681e-12
-4.33681e-13
6.7043e-06
-9.95133e-06
1.95674e-06
-9.24318e-07
1.7316e-07
-6.97738e-08
1.78317e-08
-5.0518e-09
1.61947e-09
-4.16305e-10
1.22454e-10
-3.80921e-11
7.84757e-12
-3.12928e-12
7.2399e-13
-2.36418e-12
-2.91159e-12
-4.69554e-13
-3.36137e-13
4.60786e-13
-5.60042e-06
8.30943e-06
-1.6291e-06
7.70736e-07
-1.4353e-07
5.79421e-08
-1.47466e-08
4.15524e-09
-1.34814e-09
3.30705e-10
-1.08996e-10
2.39619e-11
-1.23526e-11
9.46368e-13
-9.19094e-13
-4.10828e-12
-4.64735e-12
1.69933e-12
5.76573e-13
-2.1684e-13
4.58262e-06
-6.78354e-06
1.34074e-06
-6.30278e-07
1.18981e-07
-4.77293e-08
1.22477e-08
-3.47367e-09
1.09614e-09
-2.89783e-10
8.26111e-11
-2.62261e-11
5.51057e-12
-1.01039e-12
1.97832e-12
-1.08581e-12
-1.34028e-12
1.21487e-12
-5.4502e-13
5.42101e-14
-3.23708e-06
4.84293e-06
-9.41771e-07
4.49513e-07
-8.33519e-08
3.37757e-08
-8.63936e-09
2.41288e-09
-7.79067e-10
1.96622e-10
-6.04377e-11
1.58724e-11
-6.20611e-12
2.20459e-12
1.03394e-12
-2.72685e-12
-4.83743e-12
-1.03492e-13
-2.33731e-13
-2.71051e-14
2.31404e-06
-3.39853e-06
6.69805e-07
-3.12345e-07
5.79516e-08
-2.31188e-08
5.8777e-09
-1.63219e-09
5.06387e-10
-1.38271e-10
3.14573e-11
-1.88711e-11
-4.25313e-12
-4.76512e-12
-3.45135e-12
-7.94455e-12
-6.60487e-12
7.05352e-13
-6.55537e-13
5.42101e-13
-1.1415e-06
1.61395e-06
-3.65563e-07
1.65145e-07
-3.57775e-08
1.37947e-08
-3.63804e-09
1.11052e-09
-3.29462e-10
9.71987e-11
-2.57227e-11
9.78492e-12
-7.86047e-13
4.87891e-12
2.84603e-12
-1.11131e-12
1.00289e-12
4.77049e-12
-2.27682e-12
4.33681e-13
)
;

boundaryField
{
    movingWall
    {
        type            extrapolatedCalculated;
        value           nonuniform List<scalar> 
20
(
-1.1415e-06
1.61395e-06
-3.65563e-07
1.65145e-07
-3.57775e-08
1.37947e-08
-3.63804e-09
1.11052e-09
-3.29462e-10
9.71987e-11
-2.57227e-11
9.78492e-12
-7.86047e-13
4.87891e-12
2.84603e-12
-1.11131e-12
1.00289e-12
4.77049e-12
-2.27682e-12
4.33681e-13
)
;
    }
    fixedWalls
    {
        type            extrapolatedCalculated;
        value           nonuniform List<scalar> 
60
(
8.3946e-08
-4.54514e-07
7.93157e-07
-1.34536e-06
2.09654e-06
-3.42243e-06
6.40659e-06
-9.25713e-06
1.03405e-05
-1.03771e-05
1.00929e-05
-9.40046e-06
8.67197e-06
-7.68161e-06
6.7043e-06
-5.60042e-06
4.58262e-06
-3.23708e-06
2.31404e-06
-1.1415e-06
-4.87891e-13
-1.19262e-12
-8.13152e-14
-1.30104e-12
1.6263e-13
-1.16552e-12
4.06576e-13
-1.11131e-12
5.96311e-13
-8.67362e-13
6.77626e-13
-7.04731e-13
5.14996e-13
-4.33681e-13
4.60786e-13
-2.1684e-13
5.42101e-14
-2.71051e-14
5.42101e-13
4.33681e-13
8.3946e-08
-8.86058e-07
1.38999e-07
-7.42614e-08
1.0403e-08
-4.54519e-09
1.07874e-09
-2.53138e-10
8.32344e-11
-1.80346e-11
6.25622e-12
-3.65002e-13
1.89507e-12
1.37545e-12
1.6054e-12
8.81637e-13
-1.10129e-12
-9.88049e-13
5.2051e-12
-4.87891e-13
)
;
    }
    frontAndBack
    {
        type            empty;
    }
}


// ************************************************************************* //
