/*--------------------------------*- C++ -*----------------------------------*\
| =========                 |                                                 |
| \\      /  F ield         | OpenFOAM: The Open Source CFD Toolbox           |
|  \\    /   O peration     | Version:  2506                                  |
|   \\  /    A nd           | Website:  www.openfoam.com                      |
|    \\/     M anipulation  |                                                 |
\*---------------------------------------------------------------------------*/
FoamFile
{
    version     2.0;
    format      ascii;
    arch        "LSB;label=32;scalar=64";
    class       volScalarField;
    location    "3.375";
    object      enstrophyField;
}
// * * * * * * * * * * * * * * * * * * * * * * * * * * * * * * * * * * * * * //

dimensions      [0 0 -2 0 0 0 0];

internalField   nonuniform List<scalar> 
400
(
2.66357e-10
3.22804e-10
1.69803e-11
9.4492e-13
4.87618e-14
2.8797e-15
1.08879e-16
1.73956e-17
2.87767e-19
1.26172e-18
5.61113e-19
3.83523e-19
2.10375e-19
1.10926e-19
5.17882e-20
2.09222e-20
6.53411e-21
1.05629e-21
1.34846e-23
7.45176e-25
3.50361e-10
3.57833e-10
1.94333e-11
1.05465e-12
5.71823e-14
3.10062e-15
1.67472e-16
9.12779e-18
4.8715e-19
2.54624e-20
2.21208e-21
3.8119e-23
5.25224e-22
6.03209e-22
7.22752e-22
6.28438e-22
4.63639e-22
7.74048e-22
1.28636e-21
6.72028e-23
3.9432e-10
4.06107e-10
2.20514e-11
1.19607e-12
6.48742e-14
3.50579e-15
1.91284e-16
1.00608e-17
5.88461e-19
2.69233e-20
1.31963e-21
6.49643e-22
6.7772e-22
1.40656e-21
1.70154e-21
1.57469e-21
1.19445e-21
2.04538e-21
3.4329e-21
1.84099e-22
4.63045e-10
4.85196e-10
2.64e-11
1.43516e-12
7.78967e-14
4.23858e-15
2.27575e-16
1.2757e-17
6.25177e-19
4.12009e-20
2.4808e-21
1.39012e-22
1.67588e-21
2.49257e-21
3.19939e-21
2.93372e-21
2.2364e-21
3.80052e-21
6.33798e-21
3.3979e-22
5.49075e-10
5.97913e-10
3.26893e-11
1.78521e-12
9.75181e-14
5.30275e-15
2.92145e-16
1.53244e-17
9.26374e-19
4.04964e-20
1.87995e-21
1.54478e-21
2.03672e-21
4.0063e-21
4.87646e-21
4.51394e-21
3.42577e-21
5.81152e-21
9.6782e-21
5.2636e-22
6.53583e-10
7.47957e-10
4.11341e-11
2.25928e-12
1.23861e-13
6.81007e-15
3.68927e-16
2.09545e-17
1.02857e-18
6.91e-20
4.42992e-21
3.75132e-22
3.537e-21
5.28203e-21
6.72701e-21
6.15216e-21
4.68948e-21
7.89183e-21
1.30616e-20
7.09074e-22
7.20745e-10
9.12882e-10
5.07059e-11
2.81045e-12
1.55744e-13
8.59187e-15
4.80033e-16
2.55685e-17
1.55839e-18
7.06443e-20
3.05052e-21
2.80675e-21
3.57406e-21
6.91138e-21
8.33398e-21
7.71182e-21
5.85449e-21
9.779e-21
1.61356e-20
8.72254e-22
7.19713e-10
1.03625e-09
5.83609e-11
3.28513e-12
1.84582e-13
1.0391e-14
5.76263e-16
3.33136e-17
1.68941e-18
1.11406e-19
7.76167e-21
5.67009e-22
5.36995e-21
7.78594e-21
9.82921e-21
8.96794e-21
6.81896e-21
1.1301e-20
1.85341e-20
9.95959e-22
7.23756e-10
1.13452e-09
6.40287e-11
3.61149e-12
2.03862e-13
1.14682e-14
6.53315e-16
3.57046e-17
2.1995e-18
1.06781e-19
4.29612e-21
4.1041e-21
4.7361e-21
9.03678e-21
1.07307e-20
9.87102e-21
7.47106e-21
1.22868e-20
2.00476e-20
1.0662e-21
7.54838e-10
1.23561e-09
6.9776e-11
3.93867e-12
2.2216e-13
1.25744e-14
7.03704e-16
4.09711e-17
2.13492e-18
1.37417e-19
1.05957e-20
7.18935e-22
6.48963e-21
9.06635e-21
1.13153e-20
1.02425e-20
7.74219e-21
1.2633e-20
2.06401e-20
1.08204e-21
7.897e-10
1.3311e-09
7.52633e-11
4.25385e-12
2.40683e-13
1.35824e-14
7.74992e-16
4.26753e-17
2.59436e-18
1.32019e-19
4.78322e-21
4.81904e-21
5.08724e-21
9.51247e-21
1.11216e-20
1.01562e-20
7.59757e-21
1.23561e-20
2.02584e-20
1.04262e-21
8.29716e-10
1.42561e-09
8.06521e-11
4.56195e-12
2.57928e-13
1.46259e-14
8.21541e-16
4.76534e-17
2.53116e-18
1.56158e-19
1.27418e-20
6.73619e-22
6.3869e-21
8.55288e-21
1.05559e-20
9.41157e-21
6.99448e-21
1.14262e-20
1.90236e-20
9.69796e-22
8.68683e-10
1.51281e-09
8.56514e-11
4.84744e-12
2.74571e-13
1.55193e-14
8.84816e-16
4.90636e-17
2.93365e-18
1.55855e-19
5.47515e-21
4.77066e-21
4.33625e-21
8.12872e-21
9.31839e-21
8.36749e-21
6.11158e-21
1.00528e-20
1.70177e-20
8.56411e-22
9.05193e-10
1.59453e-09
9.02919e-11
5.11152e-12
2.89276e-13
1.64081e-14
9.2404e-16
5.33161e-17
2.88504e-18
1.71863e-19
1.39749e-20
3.90312e-22
5.04311e-21
6.41226e-21
7.84658e-21
6.86703e-21
4.94414e-21
8.25715e-21
1.44808e-20
7.34072e-22
9.4341e-10
1.66788e-09
9.44787e-11
5.34955e-12
3.03098e-13
1.71475e-14
9.76267e-16
5.44942e-17
3.20603e-18
1.75615e-19
6.60057e-21
3.93089e-21
2.78304e-21
5.43037e-21
6.05698e-21
5.34706e-21
3.77062e-21
6.39527e-21
1.15165e-20
5.78987e-22
9.81703e-10
1.73438e-09
9.82555e-11
5.56464e-12
3.15108e-13
1.78727e-14
1.00895e-15
5.78842e-17
3.18829e-18
1.84672e-19
1.42728e-20
8.6766e-23
3.13987e-21
3.63793e-21
4.47464e-21
3.81084e-21
2.66061e-21
4.5839e-21
8.42498e-21
4.21823e-22
9.97655e-10
1.78326e-09
1.00998e-10
5.71767e-12
3.23832e-13
1.83258e-14
1.04099e-15
5.84676e-17
3.37842e-18
1.90747e-19
7.69374e-21
2.85836e-21
1.29213e-21
2.74421e-21
2.94686e-21
2.56151e-21
1.7658e-21
3.05062e-21
5.58661e-21
2.6388e-22
1.03594e-09
1.83177e-09
1.03754e-10
5.87446e-12
3.32598e-13
1.88491e-14
1.06553e-15
6.07656e-17
3.39134e-18
1.93731e-19
1.33258e-20
2.57908e-23
1.25071e-21
1.20226e-21
1.52491e-21
1.23123e-21
8.09679e-22
1.55415e-21
3.22288e-21
1.57298e-22
1.06554e-09
1.86786e-09
1.06001e-10
6.01318e-12
3.4121e-13
1.936e-14
1.10015e-15
6.22303e-17
3.57245e-18
1.98881e-19
1.10052e-20
1.02715e-21
3.11186e-23
2.80466e-22
2.62596e-22
1.81463e-22
6.22257e-23
3.13806e-22
1.35311e-21
9.93003e-23
1.14822e-09
1.90933e-09
1.11103e-10
6.25762e-12
3.69386e-13
2.03651e-14
1.33847e-15
5.00147e-17
9.84406e-18
1.54506e-19
6.80745e-19
2.68017e-19
1.76334e-19
8.83409e-20
4.17025e-20
1.69185e-20
5.87835e-21
1.12788e-21
1.71481e-23
3.34268e-24
)
;

boundaryField
{
    movingWall
    {
        type            calculated;
        value           nonuniform List<scalar> 
20
(
1.69197e-09
2.04851e-09
1.26269e-10
7.00357e-12
4.4371e-13
2.40887e-14
1.82096e-15
4.86902e-17
2.14656e-17
1.42624e-18
2.48453e-18
1.14045e-18
7.12601e-19
3.62717e-19
1.71295e-19
7.12815e-20
2.6141e-20
4.61047e-21
2.59538e-23
8.14722e-23
)
;
    }
    fixedWalls
    {
        type            calculated;
        value           nonuniform List<scalar> 
60
(
5.81384e-09
6.50709e-09
7.38755e-09
8.81428e-09
1.08392e-08
1.35135e-08
1.64182e-08
1.85524e-08
2.03213e-08
2.21378e-08
2.38473e-08
2.55375e-08
2.7095e-08
2.85583e-08
2.98686e-08
3.10554e-08
3.19391e-08
3.28011e-08
3.33868e-08
3.4253e-08
1.07167e-22
3.74203e-22
9.77086e-22
1.79673e-21
2.72118e-21
3.67438e-21
4.54224e-21
5.25667e-21
5.7557e-21
6.02754e-21
6.04506e-21
5.81673e-21
5.34803e-21
4.65696e-21
3.80336e-21
2.85636e-21
1.98228e-21
1.17813e-21
4.84504e-22
1.9026e-22
1.23292e-10
2.90608e-10
1.37206e-11
8.1844e-13
3.71477e-14
2.40235e-15
5.2406e-17
2.56444e-17
3.35385e-18
4.24062e-18
2.36211e-18
1.49606e-18
8.34737e-19
4.33616e-19
2.00512e-19
7.96318e-20
2.45145e-20
3.21982e-21
2.99249e-23
2.41424e-23
)
;
    }
    frontAndBack
    {
        type            empty;
    }
}


// ************************************************************************* //
