/*--------------------------------*- C++ -*----------------------------------*\
| =========                 |                                                 |
| \\      /  F ield         | OpenFOAM: The Open Source CFD Toolbox           |
|  \\    /   O peration     | Version:  2506                                  |
|   \\  /    A nd           | Website:  www.openfoam.com                      |
|    \\/     M anipulation  |                                                 |
\*---------------------------------------------------------------------------*/
FoamFile
{
    version     2.0;
    format      ascii;
    arch        "LSB;label=32;scalar=64";
    class       volScalarField;
    location    "3.375";
    object      flowTypeField;
}
// * * * * * * * * * * * * * * * * * * * * * * * * * * * * * * * * * * * * * //

dimensions      [0 0 0 0 0 0 0];

internalField   nonuniform List<scalar> 
400
(
-0.130524
-0.0202458
-0.0405714
-0.0341486
-0.0440119
-0.0971729
0.0745432
-0.585737
0.52633
-0.0874
0.0736008
0.0397707
0.0641488
0.0764012
0.10099
0.140328
0.229513
0.437356
0.818853
0.886469
-0.225557
-0.0293851
-0.0709729
-0.0360464
-0.0831921
-0.068661
-0.0641715
-0.135693
0.145182
0.364689
0.786924
0.962438
0.851528
0.811733
0.75257
0.70947
0.680108
0.504093
0.126041
0.262358
-0.178907
-0.0130045
-0.0562963
0.00195014
-0.053026
-0.00377256
-0.00792245
0.0433199
-0.0865896
0.556175
0.80314
0.8595
0.829299
0.725954
0.643313
0.575134
0.532769
0.334868
0.0438693
0.121836
-0.129096
0.00576155
-0.0399598
0.0411956
-0.0233258
0.0510034
0.0794875
0.0172392
0.330552
0.138502
0.791897
0.925744
0.744868
0.643978
0.53877
0.464569
0.411575
0.211203
0.0172252
0.0436731
-0.0802582
0.0233448
-0.0218394
0.0735868
0.00486644
0.103259
0.10097
0.181166
0.0988649
0.571644
0.743037
0.788402
0.707724
0.565862
0.455173
0.371875
0.318117
0.148949
0.00442276
0.0177298
-0.0422654
0.0369422
-0.00798378
0.0968637
0.0261557
0.126232
0.16444
0.115414
0.396284
0.063834
0.742119
0.869523
0.632329
0.501951
0.383972
0.305287
0.245659
0.0938751
-0.0012241
-0.00456263
0.0042283
0.0503617
0.0116844
0.120034
0.0433505
0.170719
0.155208
0.246107
0.23475
0.531973
0.653392
0.707856
0.602451
0.443276
0.329443
0.247465
0.189587
0.070387
-0.00518928
-0.00869858
0.0541882
0.0586447
0.0327875
0.127968
0.0709707
0.177272
0.196653
0.205597
0.39084
0.228309
0.662386
0.822738
0.533295
0.398803
0.284862
0.210109
0.151479
0.0467042
-0.00647061
-0.0158162
0.0871007
0.0611542
0.0448535
0.130774
0.0868219
0.191404
0.200105
0.265274
0.315281
0.474302
0.617021
0.621623
0.520763
0.358958
0.254694
0.18063
0.123558
0.037903
-0.00646094
-0.0156964
0.0982575
0.0571359
0.0465429
0.121919
0.0869163
0.180219
0.196916
0.231209
0.360613
0.306858
0.576004
0.786591
0.462254
0.34114
0.235432
0.165761
0.109997
0.0314765
-0.00726549
-0.0158679
0.10342
0.0520951
0.0461213
0.110484
0.0837983
0.167393
0.181552
0.235207
0.300958
0.398303
0.622682
0.553873
0.486687
0.325407
0.231067
0.161128
0.105905
0.0302695
-0.00684549
-0.0156038
0.103283
0.0453746
0.0429994
0.0956914
0.0753052
0.146959
0.162097
0.199045
0.297687
0.301201
0.48903
0.792493
0.445663
0.343309
0.239723
0.17152
0.118698
0.0375557
-0.00737093
-0.0140493
0.101802
0.0394039
0.0402449
0.0823017
0.0687031
0.129298
0.142855
0.187452
0.248497
0.317
0.612895
0.537603
0.519491
0.354518
0.264507
0.194409
0.140704
0.0454232
-0.00527918
-0.0139433
0.0997373
0.0334047
0.0370441
0.0684778
0.0605795
0.10887
0.122652
0.152718
0.22894
0.258589
0.440765
0.845889
0.498235
0.410406
0.304308
0.232814
0.183386
0.0721729
-0.00501455
-0.00925294
0.0950429
0.0279133
0.0337219
0.0559455
0.0532761
0.0913278
0.101388
0.139025
0.177987
0.253916
0.588548
0.58558
0.612635
0.448439
0.361247
0.287993
0.239531
0.10092
0.0012785
-0.000451238
0.0890046
0.0227791
0.0300728
0.0440468
0.0456082
0.0718405
0.0847333
0.100804
0.163206
0.200317
0.44801
0.930679
0.603143
0.535248
0.428148
0.356589
0.310766
0.151702
0.00722262
0.0252554
0.0912082
0.0203592
0.0296658
0.0376278
0.042853
0.0642206
0.0688904
0.10463
0.113948
0.220112
0.584204
0.661706
0.734505
0.58419
0.505189
0.429648
0.385879
0.2017
0.0185517
0.0682721
0.0813941
0.0157397
0.0256951
0.0271993
0.0369264
0.0453274
0.0601671
0.0619645
0.117674
0.16657
0.498693
0.964682
0.745017
0.711599
0.621964
0.568549
0.54206
0.330955
0.0294745
0.115121
0.0740616
0.0122056
0.0210416
0.0190112
0.0253975
0.033623
0.03014
0.0561657
0.0503598
0.187869
0.555502
0.804435
0.957367
0.854753
0.828727
0.814058
0.853765
0.632386
0.108273
0.198217
0.0414051
0.00627129
0.0106543
0.00977503
0.0083205
0.0281412
-0.0322103
0.177303
-0.490522
0.572723
-0.128333
0.0986185
0.0418443
0.0801475
0.0957244
0.13144
0.219011
0.443167
0.828662
0.815482
)
;

boundaryField
{
    movingWall
    {
        type            calculated;
        value           nonuniform List<scalar> 
20
(
0.73165
0.258769
0.236327
0.248158
0.22006
0.241195
0.153841
0.402231
-0.258503
0.33857
-0.0873339
0.0376265
-0.0017693
0.0143682
0.0132882
0.0225824
0.0563077
0.201667
0.820215
0.433143
)
;
    }
    fixedWalls
    {
        type            calculated;
        value           nonuniform List<scalar> 
60
(
-0.0247453
-0.0383908
-0.0208589
-5.06972e-05
0.0198367
0.035831
0.0523698
0.0634849
0.0662305
0.0619103
0.056686
0.0496156
0.0434079
0.0370275
0.0312838
0.0258778
0.0231592
0.018351
0.0155804
0.00822522
0.172525
0.105318
0.0477565
0.0254845
0.0186779
0.0131432
0.0106389
0.00869865
0.00768982
0.00670943
0.00655369
0.00728481
0.00848375
0.011975
0.0150028
0.0200067
0.021695
0.0465757
0.142769
0.214761
0.811331
0.272608
0.308373
0.276165
0.31644
0.256019
0.499112
-0.225555
0.268797
-0.0638714
0.0275625
0.00353103
0.0128898
0.0134226
0.0193225
0.0317366
0.0685769
0.222535
0.774258
0.544638
)
;
    }
    frontAndBack
    {
        type            empty;
    }
}


// ************************************************************************* //
