/*--------------------------------*- C++ -*----------------------------------*\
| =========                 |                                                 |
| \\      /  F ield         | OpenFOAM: The Open Source CFD Toolbox           |
|  \\    /   O peration     | Version:  2506                                  |
|   \\  /    A nd           | Website:  www.openfoam.com                      |
|    \\/     M anipulation  |                                                 |
\*---------------------------------------------------------------------------*/
FoamFile
{
    version     2.0;
    format      ascii;
    arch        "LSB;label=32;scalar=64";
    class       surfaceScalarField;
    location    "3.375";
    object      fluxField;
}
// * * * * * * * * * * * * * * * * * * * * * * * * * * * * * * * * * * * * * //

dimensions      [0 3 -1 0 0 0 0];

oriented        oriented;

internalField   nonuniform List<scalar> 
760
(
-5e-05
-2.22269e-13
-5e-05
4.75512e-14
-5e-05
-1.05303e-14
-5e-05
2.20961e-15
-5e-05
-3.71236e-16
-5e-05
1.52032e-16
-5e-05
6.76428e-17
-5e-05
7.93558e-17
-5e-05
7.57031e-17
-5e-05
7.06266e-17
-5e-05
6.47595e-17
-5e-05
5.7629e-17
-5e-05
4.99608e-17
-5e-05
4.16249e-17
-5e-05
3.34492e-17
-5e-05
2.5733e-17
-5e-05
1.96537e-17
-5e-05
1.43626e-17
-5e-05
6.15308e-18
-2.31311e-18
-5e-05
4.53637e-13
-5e-05
-1.04488e-13
-5e-05
2.47562e-14
-5e-05
-5.66547e-15
-5e-05
1.44998e-15
-5e-05
-1.7432e-16
-5e-05
2.27013e-16
-5e-05
1.4053e-16
-5e-05
1.56505e-16
-5e-05
1.41566e-16
-5e-05
1.29871e-16
-5e-05
1.15121e-16
-5e-05
9.95542e-17
-5e-05
8.2798e-17
-5e-05
6.64777e-17
-5e-05
5.10248e-17
-5e-05
3.8794e-17
-5e-05
2.85298e-17
-5e-05
1.20258e-17
-4.52012e-18
-5e-05
-6.8649e-13
-5e-05
1.58202e-13
-5e-05
-3.7531e-14
-5e-05
8.58928e-15
-5e-05
-1.82073e-15
-5e-05
6.81864e-16
-5e-05
1.45024e-16
-5e-05
2.67222e-16
-5e-05
2.26427e-16
-5e-05
2.14972e-16
-5e-05
1.92826e-16
-5e-05
1.70707e-16
-5e-05
1.47012e-16
-5e-05
1.22038e-16
-5e-05
9.78659e-17
-5e-05
7.5069e-17
-5e-05
5.69343e-17
-5e-05
4.18137e-17
-5e-05
1.76307e-17
-6.57384e-18
-5e-05
9.07629e-13
-5e-05
-2.16277e-13
-5e-05
5.13488e-14
-5e-05
-1.19678e-14
-5e-05
3.17157e-15
-5e-05
-3.33757e-16
-5e-05
5.088e-16
-5e-05
2.98699e-16
-5e-05
3.20206e-16
-5e-05
2.81236e-16
-5e-05
2.53588e-16
-5e-05
2.22272e-16
-5e-05
1.90895e-16
-5e-05
1.58076e-16
-5e-05
1.266e-16
-5e-05
9.70244e-17
-5e-05
7.3498e-17
-5e-05
5.39598e-17
-5e-05
2.27369e-17
-8.44037e-18
-5e-05
-1.09256e-12
-5e-05
2.58929e-13
-5e-05
-6.22107e-14
-5e-05
1.4719e-14
-5e-05
-2.97271e-15
-5e-05
1.31098e-15
-5e-05
2.91447e-16
-5e-05
4.78374e-16
-5e-05
3.79419e-16
-5e-05
3.49723e-16
-5e-05
3.06707e-16
-5e-05
2.68445e-16
-5e-05
2.29524e-16
-5e-05
1.89755e-16
-5e-05
1.51784e-16
-5e-05
1.16247e-16
-5e-05
8.79865e-17
-5e-05
6.45186e-17
-5e-05
2.71998e-17
-1.00668e-17
-5e-05
1.15238e-12
-5e-05
-2.92238e-13
-5e-05
7.13685e-14
-5e-05
-1.58873e-14
-5e-05
5.15736e-15
-5e-05
-2.39985e-16
-5e-05
8.5748e-16
-5e-05
4.65152e-16
-5e-05
4.69303e-16
-5e-05
3.97532e-16
-5e-05
3.52755e-16
-5e-05
3.06073e-16
-5e-05
2.61508e-16
-5e-05
2.15886e-16
-5e-05
1.72599e-16
-5e-05
1.32122e-16
-5e-05
9.99357e-17
-5e-05
7.32418e-17
-5e-05
3.08612e-17
-1.14182e-17
-5e-05
-8.67128e-13
-5e-05
2.5985e-13
-5e-05
-5.72222e-14
-5e-05
1.87847e-14
-5e-05
-2.9351e-15
-5e-05
1.92059e-15
-5e-05
4.17923e-16
-5e-05
6.41442e-16
-5e-05
4.83843e-16
-5e-05
4.42196e-16
-5e-05
3.8342e-16
-5e-05
3.3446e-16
-5e-05
2.85269e-16
-5e-05
2.35617e-16
-5e-05
1.88372e-16
-5e-05
1.44213e-16
-5e-05
1.09057e-16
-5e-05
7.98545e-17
-5e-05
3.36499e-17
-1.24705e-17
-5e-05
6.76908e-13
-5e-05
-1.8617e-13
-5e-05
4.63055e-14
-5e-05
-1.12571e-14
-5e-05
4.23473e-15
-5e-05
-4.3881e-17
-5e-05
9.24293e-16
-5e-05
5.27763e-16
-5e-05
5.34849e-16
-5e-05
4.52606e-16
-5e-05
4.03873e-16
-5e-05
3.50875e-16
-5e-05
3.00448e-16
-5e-05
2.48315e-16
-5e-05
1.98731e-16
-5e-05
1.52204e-16
-5e-05
1.15107e-16
-5e-05
8.42904e-17
-5e-05
3.55063e-17
-1.32174e-17
-5e-05
-6.13803e-13
-5e-05
1.60838e-13
-5e-05
-3.77106e-14
-5e-05
1.10191e-14
-5e-05
-1.80213e-15
-5e-05
1.37252e-15
-5e-05
4.49502e-16
-5e-05
6.14726e-16
-5e-05
4.98712e-16
-5e-05
4.61762e-16
-5e-05
4.06398e-16
-5e-05
3.57442e-16
-5e-05
3.06479e-16
-5e-05
2.54017e-16
-5e-05
2.03541e-16
-5e-05
1.56034e-16
-5e-05
1.18071e-16
-5e-05
8.64841e-17
-5e-05
3.64526e-17
-1.36645e-17
-5e-05
5.43957e-13
-5e-05
-1.39657e-13
-5e-05
3.39206e-14
-5e-05
-8.12942e-15
-5e-05
2.77932e-15
-5e-05
5.09672e-17
-5e-05
7.14542e-16
-5e-05
4.95549e-16
-5e-05
4.99435e-16
-5e-05
4.43431e-16
-5e-05
4.00933e-16
-5e-05
3.53095e-16
-5e-05
3.04494e-16
-5e-05
2.52898e-16
-5e-05
2.03028e-16
-5e-05
1.55784e-16
-5e-05
1.17989e-16
-5e-05
8.65598e-17
-5e-05
3.65111e-17
-1.38242e-17
-5e-05
-5.08333e-13
-5e-05
1.28193e-13
-5e-05
-3.00593e-14
-5e-05
8.14964e-15
-5e-05
-1.3783e-15
-5e-05
9.91088e-16
-5e-05
3.90758e-16
-5e-05
5.20147e-16
-5e-05
4.52098e-16
-5e-05
4.26288e-16
-5e-05
3.83566e-16
-5e-05
3.41144e-16
-5e-05
2.94959e-16
-5e-05
2.45673e-16
-5e-05
1.97523e-16
-5e-05
1.51734e-16
-5e-05
1.15077e-16
-5e-05
8.45987e-17
-5e-05
3.57754e-17
-1.37014e-17
-5e-05
4.49493e-13
-5e-05
-1.12535e-13
-5e-05
2.70716e-14
-5e-05
-6.36471e-15
-5e-05
2.07656e-15
-5e-05
5.35059e-17
-5e-05
5.6351e-16
-5e-05
4.23451e-16
-5e-05
4.32534e-16
-5e-05
3.94776e-16
-5e-05
3.61458e-16
-5e-05
3.2175e-16
-5e-05
2.79256e-16
-5e-05
2.32943e-16
-5e-05
1.87537e-16
-5e-05
1.44173e-16
-5e-05
1.09512e-16
-5e-05
8.08119e-17
-5e-05
3.42924e-17
-1.32948e-17
-5e-05
-4.10626e-13
-5e-05
1.0219e-13
-5e-05
-2.39717e-14
-5e-05
6.36276e-15
-5e-05
-1.07833e-15
-5e-05
7.76713e-16
-5e-05
3.28042e-16
-5e-05
4.32204e-16
-5e-05
3.84848e-16
-5e-05
3.65854e-16
-5e-05
3.32256e-16
-5e-05
2.97141e-16
-5e-05
2.58005e-16
-5e-05
2.1546e-16
-5e-05
1.73552e-16
-5e-05
1.33506e-16
-5e-05
1.01599e-16
-5e-05
7.52871e-17
-5e-05
3.21265e-17
-1.25939e-17
-5e-05
3.49169e-13
-5e-05
-8.55332e-14
-5e-05
2.05658e-14
-5e-05
-4.67984e-15
-5e-05
1.57454e-15
-5e-05
9.28027e-17
-5e-05
4.57282e-16
-5e-05
3.55725e-16
-5e-05
3.58152e-16
-5e-05
3.27855e-16
-5e-05
2.99897e-16
-5e-05
2.67234e-16
-5e-05
2.321e-16
-5e-05
1.93741e-16
-5e-05
1.56058e-16
-5e-05
1.2006e-16
-5e-05
9.15285e-17
-5e-05
6.8184e-17
-5e-05
2.92642e-17
-1.15845e-17
-5e-05
-3.0352e-13
-5e-05
7.33405e-14
-5e-05
-1.69974e-14
-5e-05
4.50703e-15
-5e-05
-6.11792e-16
-5e-05
6.07965e-16
-5e-05
3.02876e-16
-5e-05
3.51744e-16
-5e-05
3.12339e-16
-5e-05
2.90668e-16
-5e-05
2.62186e-16
-5e-05
2.33108e-16
-5e-05
2.01889e-16
-5e-05
1.68279e-16
-5e-05
1.35415e-16
-5e-05
1.04123e-16
-5e-05
7.95098e-17
-5e-05
5.95273e-17
-5e-05
2.56793e-17
-1.0263e-17
-5e-05
2.43341e-13
-5e-05
-6.06121e-14
-5e-05
1.4949e-14
-5e-05
-3.20225e-15
-5e-05
1.31446e-15
-5e-05
1.47068e-16
-5e-05
3.90291e-16
-5e-05
2.85879e-16
-5e-05
2.7554e-16
-5e-05
2.44358e-16
-5e-05
2.19847e-16
-5e-05
1.93754e-16
-5e-05
1.67294e-16
-5e-05
1.39075e-16
-5e-05
1.11768e-16
-5e-05
8.59056e-17
-5e-05
6.58012e-17
-5e-05
4.9607e-17
-5e-05
2.15165e-17
-8.70833e-18
-5e-05
-1.96049e-13
-5e-05
4.66124e-14
-5e-05
-1.0101e-14
-5e-05
3.2104e-15
-5e-05
-1.53868e-16
-5e-05
5.17243e-16
-5e-05
2.63037e-16
-5e-05
2.63062e-16
-5e-05
2.18496e-16
-5e-05
1.95596e-16
-5e-05
1.72007e-16
-5e-05
1.50937e-16
-5e-05
1.29646e-16
-5e-05
1.07551e-16
-5e-05
8.63498e-17
-5e-05
6.6468e-17
-5e-05
5.1151e-17
-5e-05
3.88539e-17
-5e-05
1.69941e-17
-7.01995e-18
-5e-05
1.27195e-13
-5e-05
-2.61102e-14
-5e-05
7.05344e-15
-5e-05
-3.05347e-16
-5e-05
6.38252e-16
-5e-05
3.29495e-16
-5e-05
2.26679e-16
-5e-05
1.96923e-16
-5e-05
1.56359e-16
-5e-05
1.38277e-16
-5e-05
1.19142e-16
-5e-05
1.03965e-16
-5e-05
8.87557e-17
-5e-05
7.34231e-17
-5e-05
5.88528e-17
-5e-05
4.52952e-17
-5e-05
3.50098e-17
-5e-05
2.72283e-17
-5e-05
1.24844e-17
-5.13016e-18
-5e-05
-1.11911e-13
-5e-05
5.75539e-14
-5e-05
-1.3313e-14
-5e-05
5.833e-15
-5e-05
-1.21299e-15
-5e-05
6.69821e-16
-5e-05
-6.96584e-18
-5e-05
1.44875e-16
-5e-05
7.00285e-17
-5e-05
7.35e-17
-5e-05
5.87541e-17
-5e-05
5.18708e-17
-5e-05
4.37414e-17
-5e-05
3.61121e-17
-5e-05
2.88172e-17
-5e-05
2.2056e-17
-5e-05
1.72275e-17
-5e-05
1.42845e-17
-5e-05
7.17481e-18
-2.78696e-18
-5e-05
-5e-05
-5e-05
-5e-05
-5e-05
-5e-05
-5e-05
-5e-05
-5e-05
-5e-05
-5e-05
-5e-05
-5e-05
-5e-05
-5e-05
-5e-05
-5e-05
-5e-05
-5e-05
)
;

boundaryField
{
    movingWall
    {
        type            calculated;
        value           uniform -0;
    }
    fixedWalls
    {
        type            calculated;
        value           nonuniform List<scalar> 
60
(
5e-05
5e-05
5e-05
5e-05
5e-05
5e-05
5e-05
5e-05
5e-05
5e-05
5e-05
5e-05
5e-05
5e-05
5e-05
5e-05
5e-05
5e-05
5e-05
5e-05
-5e-05
-5e-05
-5e-05
-5e-05
-5e-05
-5e-05
-5e-05
-5e-05
-5e-05
-5e-05
-5e-05
-5e-05
-5e-05
-5e-05
-5e-05
-5e-05
-5e-05
-5e-05
-5e-05
-5e-05
0
0
0
0
0
0
0
0
0
0
0
0
0
0
0
0
0
0
0
0
)
;
    }
    frontAndBack
    {
        type            empty;
    }
}


// ************************************************************************* //
