/*--------------------------------*- C++ -*----------------------------------*\
| =========                 |                                                 |
| \\      /  F ield         | OpenFOAM: The Open Source CFD Toolbox           |
|  \\    /   O peration     | Version:  2506                                  |
|   \\  /    A nd           | Website:  www.openfoam.com                      |
|    \\/     M anipulation  |                                                 |
\*---------------------------------------------------------------------------*/
FoamFile
{
    version     2.0;
    format      ascii;
    arch        "LSB;label=32;scalar=64";
    class       volTensorField;
    location    "3.375";
    object      gradU;
}
// * * * * * * * * * * * * * * * * * * * * * * * * * * * * * * * * * * * * * //

dimensions      [0 0 -1 0 0 0 0];

internalField   nonuniform List<tensor> 
400
(
(9.73021e-07 2.03668e-05 0 -2.71383e-06 -8.89075e-07 0 0 0 0)
(-1.07626e-06 -2.48801e-05 0 5.28715e-07 1.90205e-07 0 0 0 0)
(1.8112e-07 5.59713e-06 0 -2.30434e-07 -4.21211e-08 0 0 0 0)
(-8.30998e-08 -1.32659e-06 0 4.81199e-08 8.83845e-09 0 0 0 0)
(1.18879e-08 2.98871e-07 0 -1.34161e-08 -1.48494e-09 0 0 0 0)
(-5.15332e-09 -6.8953e-08 0 6.93773e-09 6.08127e-10 0 0 0 0)
(8.08164e-10 1.5924e-08 0 1.16739e-09 2.70571e-10 0 0 0 0)
(-5.70561e-10 -3.56601e-09 0 2.33239e-09 3.17423e-10 0 0 0 0)
(-2.19578e-10 8.14022e-10 0 1.57266e-09 3.02812e-10 0 0 0 0)
(-3.00541e-10 -1.94874e-10 0 1.39366e-09 2.82506e-10 0 0 0 0)
(-2.52782e-10 2.82662e-11 0 1.08762e-09 2.59038e-10 0 0 0 0)
(-2.30881e-10 -2.36292e-11 0 8.52183e-10 2.30516e-10 0 0 0 0)
(-1.97948e-10 -1.37707e-11 0 6.34882e-10 1.99843e-10 0 0 0 0)
(-1.65124e-10 -1.67847e-11 0 4.54227e-10 1.66499e-10 0 0 0 0)
(-1.32191e-10 -1.54915e-11 0 3.06341e-10 1.33797e-10 0 0 0 0)
(-1.02051e-10 -1.3387e-11 0 1.91172e-10 1.02932e-10 0 0 0 0)
(-7.9716e-11 -1.18592e-11 0 1.02457e-10 7.86147e-11 0 0 0 0)
(-5.84385e-11 -1.35452e-11 0 3.24176e-11 5.74504e-11 0 0 0 0)
(-1.94072e-11 -1.63334e-11 0 -1.11402e-11 2.46123e-11 0 0 0 0)
(8.75493e-12 -4.06469e-12 0 -5.28549e-12 -9.25245e-12 0 0 0 0)
(-3.15814e-06 -2.10656e-05 0 5.40551e-06 2.70362e-06 0 0 0 0)
(3.55966e-06 2.5727e-05 0 -1.02487e-06 -6.08157e-07 0 0 0 0)
(-6.61715e-07 -5.7785e-06 0 4.55806e-07 1.41146e-07 0 0 0 0)
(3.00117e-07 1.36723e-06 0 -8.51101e-08 -3.15004e-08 0 0 0 0)
(-5.307e-08 -3.07102e-07 0 3.10765e-08 7.28487e-09 0 0 0 0)
(1.97369e-08 7.07086e-08 0 -8.03939e-09 -1.30541e-09 0 0 0 0)
(-5.41356e-09 -1.62147e-08 0 2.08676e-09 6.37481e-10 0 0 0 0)
(9.75863e-10 3.59825e-09 0 -6.74401e-10 2.44695e-10 0 0 0 0)
(-7.19178e-10 -8.48939e-10 0 1.38127e-10 3.23209e-10 0 0 0 0)
(-1.84504e-10 1.51099e-10 0 -7.4566e-11 2.83757e-10 0 0 0 0)
(-2.88669e-10 -8.02566e-11 0 -1.37423e-11 2.60446e-10 0 0 0 0)
(-2.21882e-10 -3.55654e-11 0 -2.6834e-11 2.29968e-10 0 0 0 0)
(-2.00035e-10 -5.02457e-11 0 -1.78351e-11 1.98374e-10 0 0 0 0)
(-1.63416e-10 -4.92618e-11 0 -1.45283e-11 1.64692e-10 0 0 0 0)
(-1.30836e-10 -4.80758e-11 0 -1.0056e-11 1.32114e-10 0 0 0 0)
(-1.01807e-10 -4.1795e-11 0 -6.34258e-12 1.01167e-10 0 0 0 0)
(-7.90654e-11 -3.36225e-11 0 -3.17129e-12 7.65613e-11 0 0 0 0)
(-5.51859e-11 -4.04572e-11 0 -1.11131e-12 5.66687e-11 0 0 0 0)
(-1.82417e-11 -5.03695e-11 0 3.52366e-13 2.34911e-11 0 0 0 0)
(7.64363e-12 -1.12952e-11 0 2.98156e-13 -8.82804e-12 0 0 0 0)
(5.35366e-06 2.24622e-05 0 -5.6205e-06 -4.56051e-06 0 0 0 0)
(-6.02597e-06 -2.74426e-05 0 1.0568e-06 1.05076e-06 0 0 0 0)
(1.12088e-06 6.17379e-06 0 -4.6721e-07 -2.49149e-07 0 0 0 0)
(-5.07829e-07 -1.46046e-06 0 8.61975e-08 5.7019e-08 0 0 0 0)
(8.89587e-08 3.29066e-07 0 -3.11396e-08 -1.30828e-08 0 0 0 0)
(-3.41431e-08 -7.56004e-08 0 8.1348e-09 3.42473e-09 0 0 0 0)
(8.17315e-09 1.74741e-08 0 -2.08522e-09 -3.27955e-10 0 0 0 0)
(-2.5192e-09 -3.88028e-09 0 6.05418e-10 5.06768e-10 0 0 0 0)
(3.80257e-10 8.53085e-10 0 -2.31775e-10 2.79686e-10 0 0 0 0)
(-4.5241e-10 -2.57636e-10 0 -2.55872e-11 2.93623e-10 0 0 0 0)
(-2.05077e-10 -2.55232e-11 0 -7.6897e-11 2.51821e-10 0 0 0 0)
(-2.34947e-10 -8.57021e-11 0 -4.96565e-11 2.22343e-10 0 0 0 0)
(-1.85588e-10 -7.9046e-11 0 -4.22297e-11 1.89831e-10 0 0 0 0)
(-1.57372e-10 -8.30441e-11 0 -3.00053e-11 1.56961e-10 0 0 0 0)
(-1.24033e-10 -7.90171e-11 0 -2.06812e-11 1.25553e-10 0 0 0 0)
(-9.51387e-11 -6.894e-11 0 -1.28207e-11 9.61771e-11 0 0 0 0)
(-7.45118e-11 -5.63573e-11 0 -7.48099e-12 7.25612e-11 0 0 0 0)
(-5.49148e-11 -6.66154e-11 0 -2.6563e-12 5.31358e-11 0 0 0 0)
(-1.80249e-11 -8.18301e-11 0 1.02999e-12 2.24192e-11 0 0 0 0)
(8.13152e-12 -1.87277e-11 0 4.60786e-13 -8.21487e-12 0 0 0 0)
(-7.72184e-06 -2.45754e-05 0 5.85633e-06 6.37647e-06 0 0 0 0)
(8.71295e-06 3.00384e-05 0 -1.1127e-06 -1.49791e-06 0 0 0 0)
(-1.63231e-06 -6.77224e-06 0 4.94116e-07 3.55519e-07 0 0 0 0)
(7.36188e-07 1.6033e-06 0 -9.09027e-08 -8.22285e-08 0 0 0 0)
(-1.31133e-07 -3.60696e-07 0 3.40107e-08 1.99692e-08 0 0 0 0)
(4.87912e-08 8.34634e-08 0 -8.60802e-09 -4.06249e-09 0 0 0 0)
(-1.29429e-08 -1.91327e-08 0 2.20153e-09 1.4551e-09 0 0 0 0)
(2.82931e-09 4.2059e-09 0 -8.45244e-10 1.2591e-10 0 0 0 0)
(-1.35016e-09 -1.06208e-09 0 5.61075e-11 3.75118e-10 0 0 0 0)
(-2.96258e-11 1.23234e-10 0 -1.63823e-10 2.65056e-10 0 0 0 0)
(-3.12738e-10 -1.51537e-10 0 -8.10983e-11 2.43048e-10 0 0 0 0)
(-1.87188e-10 -9.75555e-11 0 -8.08815e-11 2.06262e-10 0 0 0 0)
(-1.80411e-10 -1.15628e-10 0 -5.77338e-11 1.75534e-10 0 0 0 0)
(-1.41868e-10 -1.1354e-10 0 -4.29344e-11 1.44153e-10 0 0 0 0)
(-1.13651e-10 -1.08859e-10 0 -2.88669e-11 1.14936e-10 0 0 0 0)
(-8.86335e-11 -9.47867e-11 0 -1.81875e-11 8.78216e-11 0 0 0 0)
(-6.88739e-11 -7.66639e-11 0 -9.78492e-12 6.62549e-11 0 0 0 0)
(-4.6702e-11 -9.05992e-11 0 -3.41524e-12 4.85842e-11 0 0 0 0)
(-1.51246e-11 -1.1172e-10 0 8.67362e-13 2.04251e-11 0 0 0 0)
(6.17995e-12 -2.54995e-11 0 5.69206e-13 -7.46612e-12 0 0 0 0)
(1.00973e-05 2.73408e-05 0 -5.79755e-06 -8.00076e-06 0 0 0 0)
(-1.13882e-05 -3.34635e-05 0 1.11719e-06 1.90082e-06 0 0 0 0)
(2.14268e-06 7.58947e-06 0 -4.96233e-07 -4.54238e-07 0 0 0 0)
(-9.67935e-07 -1.79601e-06 0 9.35486e-08 1.06747e-07 0 0 0 0)
(1.71253e-07 4.07232e-07 0 -3.43967e-08 -2.45771e-08 0 0 0 0)
(-6.59522e-08 -9.41145e-08 0 8.8685e-09 6.57894e-09 0 0 0 0)
(1.5936e-08 2.16625e-08 0 -2.50958e-09 -8.6941e-10 0 0 0 0)
(-4.66467e-09 -4.96027e-09 0 5.75874e-10 7.18698e-10 0 0 0 0)
(1.06168e-09 9.9223e-10 0 -3.68927e-10 2.36851e-10 0 0 0 0)
(-5.89643e-10 -3.89706e-10 0 -1.05113e-10 2.73948e-10 0 0 0 0)
(-1.22135e-10 -8.43174e-11 0 -1.45635e-10 2.12476e-10 0 0 0 0)
(-2.11609e-10 -1.53216e-10 0 -9.76324e-11 1.84693e-10 0 0 0 0)
(-1.47614e-10 -1.41154e-10 0 -7.73307e-11 1.54515e-10 0 0 0 0)
(-1.28478e-10 -1.43642e-10 0 -5.41288e-11 1.26713e-10 0 0 0 0)
(-9.92858e-11 -1.35349e-10 0 -3.65918e-11 1.00736e-10 0 0 0 0)
(-7.60839e-11 -1.17621e-10 0 -2.26056e-11 7.68906e-11 0 0 0 0)
(-5.97124e-11 -9.55947e-11 0 -1.28207e-11 5.7954e-11 0 0 0 0)
(-4.42083e-11 -1.12445e-10 0 -4.63496e-12 4.22354e-11 0 0 0 0)
(-1.40675e-11 -1.3788e-10 0 1.24683e-12 1.78515e-11 0 0 0 0)
(6.66784e-12 -3.16867e-11 0 7.58942e-13 -6.50586e-12 0 0 0 0)
(-1.24022e-05 -3.06753e-05 0 5.47943e-06 8.97977e-06 0 0 0 0)
(1.40143e-05 3.75849e-05 0 -1.09211e-06 -2.20467e-06 0 0 0 0)
(-2.65596e-06 -8.56631e-06 0 5.03863e-07 5.34317e-07 0 0 0 0)
(1.19802e-06 2.03296e-06 0 -9.27323e-08 -1.22425e-07 0 0 0 0)
(-2.15813e-07 -4.60864e-07 0 3.68532e-08 3.25203e-08 0 0 0 0)
(8.06783e-08 1.07171e-07 0 -9.53423e-09 -6.20385e-09 0 0 0 0)
(-2.12356e-08 -2.49929e-08 0 2.17055e-09 2.26413e-09 0 0 0 0)
(4.96998e-09 5.31216e-09 0 -1.16156e-09 -5.28866e-11 0 0 0 0)
(-2.03112e-09 -1.50683e-09 0 -7.25602e-11 3.59535e-10 0 0 0 0)
(1.93693e-10 9.8859e-11 0 -2.72894e-10 1.91236e-10 0 0 0 0)
(-3.05257e-10 -2.40792e-10 0 -1.46665e-10 1.84191e-10 0 0 0 0)
(-1.1891e-10 -1.55517e-10 0 -1.28126e-10 1.5051e-10 0 0 0 0)
(-1.36881e-10 -1.73608e-10 0 -8.95009e-11 1.27934e-10 0 0 0 0)
(-1.01156e-10 -1.67319e-10 0 -6.45371e-11 1.04525e-10 0 0 0 0)
(-8.21283e-11 -1.58682e-10 0 -4.26905e-11 8.3262e-11 0 0 0 0)
(-6.48353e-11 -1.37569e-10 0 -2.66443e-11 6.34979e-11 0 0 0 0)
(-5.09033e-11 -1.11319e-10 0 -1.44741e-11 4.77968e-11 0 0 0 0)
(-3.26616e-11 -1.30702e-10 0 -5.06865e-12 3.48926e-11 0 0 0 0)
(-9.78492e-12 -1.60461e-10 0 1.16552e-12 1.46457e-11 0 0 0 0)
(4.22839e-12 -3.68452e-11 0 8.13152e-13 -5.40539e-12 0 0 0 0)
(1.44846e-05 3.41159e-05 0 -3.85107e-06 -8.07803e-06 0 0 0 0)
(-1.63638e-05 -4.1909e-05 0 8.1999e-07 2.20835e-06 0 0 0 0)
(3.14205e-06 9.67172e-06 0 -3.98627e-07 -5.14363e-07 0 0 0 0)
(-1.43494e-06 -2.2978e-06 0 7.30397e-08 1.38688e-07 0 0 0 0)
(2.54451e-07 5.23454e-07 0 -3.46582e-08 -3.23698e-08 0 0 0 0)
(-1.00635e-07 -1.24371e-07 0 6.71612e-09 8.6423e-09 0 0 0 0)
(2.43087e-08 2.78135e-08 0 -3.17145e-09 -1.75823e-09 0 0 0 0)
(-6.9078e-09 -6.86487e-09 0 2.86148e-10 7.05161e-10 0 0 0 0)
(1.95032e-09 1.23635e-09 0 -5.29091e-10 5.81605e-11 0 0 0 0)
(-6.63749e-10 -5.6505e-10 0 -1.89166e-10 1.78656e-10 0 0 0 0)
(2.26598e-11 -1.25043e-10 0 -2.03152e-10 1.22659e-10 0 0 0 0)
(-1.54445e-10 -2.09473e-10 0 -1.34549e-10 1.1355e-10 0 0 0 0)
(-8.40528e-11 -1.87139e-10 0 -1.02593e-10 9.50432e-11 0 0 0 0)
(-8.16404e-11 -1.88314e-10 0 -7.07442e-11 7.89257e-11 0 0 0 0)
(-6.13929e-11 -1.76376e-10 0 -4.72712e-11 6.30899e-11 0 0 0 0)
(-4.78946e-11 -1.53086e-10 0 -2.8894e-11 4.8366e-11 0 0 0 0)
(-3.81639e-11 -1.242e-10 0 -1.5992e-11 3.64849e-11 0 0 0 0)
(-2.85145e-11 -1.45596e-10 0 -5.74627e-12 2.64508e-11 0 0 0 0)
(-8.10441e-12 -1.78178e-10 0 1.46367e-12 1.11547e-11 0 0 0 0)
(4.60786e-12 -4.0927e-11 0 8.40257e-13 -4.20919e-12 0 0 0 0)
(-1.54333e-05 -3.6545e-05 0 1.39477e-06 6.17614e-06 0 0 0 0)
(1.74667e-05 4.51486e-05 0 -3.76054e-07 -1.78408e-06 0 0 0 0)
(-3.40291e-06 -1.0636e-05 0 1.67804e-07 4.14111e-07 0 0 0 0)
(1.56199e-06 2.51495e-06 0 -4.83028e-08 -1.20167e-07 0 0 0 0)
(-2.82137e-07 -5.9091e-07 0 1.66794e-08 2.86793e-08 0 0 0 0)
(1.12165e-07 1.37783e-07 0 -6.37714e-09 -7.85788e-09 0 0 0 0)
(-2.76655e-08 -3.29301e-08 0 1.0188e-09 2.02548e-09 0 0 0 0)
(7.61235e-09 7.12855e-09 0 -1.034e-09 -4.54715e-10 0 0 0 0)
(-2.50643e-09 -2.03334e-09 0 -1.95183e-10 2.04025e-10 0 0 0 0)
(5.19577e-10 1.63358e-10 0 -3.08672e-10 4.16402e-11 0 0 0 0)
(-2.50613e-10 -3.05898e-10 0 -1.81306e-10 8.18129e-11 0 0 0 0)
(-1.8323e-11 -1.83132e-10 0 -1.49457e-10 6.5658e-11 0 0 0 0)
(-7.31023e-11 -2.08232e-10 0 -1.04598e-10 6.07161e-11 0 0 0 0)
(-4.58075e-11 -1.99272e-10 0 -7.44847e-11 5.07922e-11 0 0 0 0)
(-4.03052e-11 -1.89242e-10 0 -4.9033e-11 4.1436e-11 0 0 0 0)
(-3.35561e-11 -1.64174e-10 0 -3.02492e-11 3.19633e-11 0 0 0 0)
(-2.77285e-11 -1.33234e-10 0 -1.64528e-11 2.42001e-11 0 0 0 0)
(-1.5233e-11 -1.56032e-10 0 -5.69206e-12 1.77437e-11 0 0 0 0)
(-3.17129e-12 -1.91121e-10 0 1.40946e-12 7.42559e-12 0 0 0 0)
(1.89735e-12 -4.37907e-11 0 8.40257e-13 -2.98787e-12 0 0 0 0)
(1.55033e-05 3.8508e-05 0 4.61764e-07 -5.16285e-06 0 0 0 0)
(-1.75907e-05 -4.7671e-05 0 -3.66419e-08 1.38803e-06 0 0 0 0)
(3.46981e-06 1.13356e-05 0 1.93817e-08 -3.36064e-07 0 0 0 0)
(-1.58607e-06 -2.68323e-06 0 4.32453e-09 8.91048e-08 0 0 0 0)
(2.96377e-07 6.35763e-07 0 -2.7693e-09 -2.41474e-08 0 0 0 0)
(-1.16295e-07 -1.51025e-07 0 4.23029e-10 5.66561e-09 0 0 0 0)
(2.96518e-08 3.52167e-08 0 -9.30679e-10 -1.89916e-09 0 0 0 0)
(-8.12176e-09 -8.68632e-09 0 -2.35922e-10 3.4785e-10 0 0 0 0)
(2.67568e-09 1.73271e-09 0 -3.64671e-10 -1.44547e-10 0 0 0 0)
(-6.49817e-10 -6.87262e-10 0 -2.25135e-10 3.66246e-11 0 0 0 0)
(1.81794e-10 -1.01025e-10 0 -1.9372e-10 1.00992e-11 0 0 0 0)
(-7.77373e-11 -2.3057e-10 0 -1.39971e-10 2.62696e-11 0 0 0 0)
(-9.08019e-12 -2.02005e-10 0 -1.0468e-10 2.4124e-11 0 0 0 0)
(-2.61022e-11 -2.07595e-10 0 -7.31565e-11 2.28071e-11 0 0 0 0)
(-1.71575e-11 -1.95205e-10 0 -4.87078e-11 1.92409e-11 0 0 0 0)
(-1.5233e-11 -1.70322e-10 0 -2.98156e-11 1.53184e-11 0 0 0 0)
(-1.36609e-11 -1.3842e-10 0 -1.61817e-11 1.18562e-11 0 0 0 0)
(-1.06523e-11 -1.62371e-10 0 -5.61075e-12 8.77497e-12 0 0 0 0)
(-1.5992e-12 -1.9891e-10 0 1.32815e-12 3.78523e-12 0 0 0 0)
(2.38524e-12 -4.53648e-11 0 8.13152e-13 -1.78815e-12 0 0 0 0)
(-1.50082e-05 -4.03198e-05 0 -1.46527e-06 4.63104e-06 0 0 0 0)
(1.70243e-05 4.99754e-05 0 2.63942e-07 -1.20198e-06 0 0 0 0)
(-3.36194e-06 -1.19349e-05 0 -1.21692e-07 2.86525e-07 0 0 0 0)
(1.53984e-06 2.82687e-06 0 2.02071e-08 -7.6594e-08 0 0 0 0)
(-2.86038e-07 -6.74349e-07 0 -7.77628e-09 1.83258e-08 0 0 0 0)
(1.14004e-07 1.60031e-07 0 1.4476e-09 -5.28622e-09 0 0 0 0)
(-2.83245e-08 -3.82478e-08 0 -7.32406e-10 1.06016e-09 0 0 0 0)
(8.17838e-09 8.88316e-09 0 -1.69027e-10 -4.76706e-10 0 0 0 0)
(-2.49564e-09 -2.34456e-09 0 -2.78206e-10 2.89194e-12 0 0 0 0)
(6.90555e-10 3.18004e-10 0 -2.06242e-10 -7.3324e-11 0 0 0 0)
(-1.65422e-10 -3.16253e-10 0 -1.70681e-10 -2.1858e-11 0 0 0 0)
(7.069e-11 -1.69108e-10 0 -1.31188e-10 -1.73882e-11 0 0 0 0)
(-6.28837e-12 -2.11694e-10 0 -9.77679e-11 -7.93835e-12 0 0 0 0)
(1.01644e-11 -2.04155e-10 0 -6.94974e-11 -4.47877e-12 0 0 0 0)
(3.06287e-12 -1.9673e-10 0 -4.62954e-11 -2.05296e-12 0 0 0 0)
(-1.11131e-12 -1.71559e-10 0 -2.84332e-11 -9.97979e-13 0 0 0 0)
(-3.41524e-12 -1.39778e-10 0 -1.53415e-11 -3.27927e-13 0 0 0 0)
(2.30393e-12 -1.64103e-10 0 -5.14996e-12 3.02458e-13 0 0 0 0)
(3.17129e-12 -2.01685e-10 0 1.49078e-12 2.33826e-13 0 0 0 0)
(-2.43945e-13 -4.57877e-11 0 7.31836e-13 -6.38887e-13 0 0 0 0)
(1.4302e-05 4.1937e-05 0 2.19534e-06 -4.20916e-06 0 0 0 0)
(-1.62472e-05 -5.20155e-05 0 -4.18952e-07 1.0714e-06 0 0 0 0)
(3.22607e-06 1.2461e-05 0 1.92084e-07 -2.55919e-07 0 0 0 0)
(-1.47215e-06 -2.95143e-06 0 -3.46371e-08 6.51162e-08 0 0 0 0)
(2.77618e-07 7.07071e-07 0 1.32656e-08 -1.66305e-08 0 0 0 0)
(-1.09252e-07 -1.6829e-07 0 -3.4724e-09 3.76048e-09 0 0 0 0)
(2.80351e-08 4.00262e-08 0 6.56322e-10 -1.29514e-09 0 0 0 0)
(-7.66759e-09 -9.74359e-09 0 -5.05048e-10 9.83892e-11 0 0 0 0)
(2.63841e-09 2.13609e-09 0 -1.41787e-10 -1.89348e-10 0 0 0 0)
(-5.42291e-10 -7.12012e-10 0 -1.98165e-10 -6.85696e-11 0 0 0 0)
(2.56847e-10 -4.50897e-11 0 -1.42898e-10 -6.94691e-11 0 0 0 0)
(-4.79759e-12 -2.1665e-10 0 -1.18476e-10 -4.78025e-11 0 0 0 0)
(5.25838e-11 -1.89096e-10 0 -8.8227e-11 -3.81408e-11 0 0 0 0)
(2.53703e-11 -2.01709e-10 0 -6.37782e-11 -2.88994e-11 0 0 0 0)
(2.39338e-11 -1.91724e-10 0 -4.2582e-11 -2.20207e-11 0 0 0 0)
(1.57209e-11 -1.68597e-10 0 -2.60751e-11 -1.62012e-11 0 0 0 0)
(9.59519e-12 -1.37119e-10 0 -1.38507e-11 -1.16472e-11 0 0 0 0)
(6.17995e-12 -1.61809e-10 0 -4.60786e-12 -7.84442e-12 0 0 0 0)
(4.2826e-12 -1.99851e-10 0 1.43657e-12 -2.94271e-12 0 0 0 0)
(1.89735e-13 -4.49597e-11 0 7.04731e-13 4.91054e-13 0 0 0 0)
(-1.32318e-05 -4.34576e-05 0 -2.72145e-06 3.8313e-06 0 0 0 0)
(1.50211e-05 5.39286e-05 0 5.31878e-07 -9.6291e-07 0 0 0 0)
(-2.97763e-06 -1.29412e-05 0 -2.4063e-07 2.28523e-07 0 0 0 0)
(1.36102e-06 3.06616e-06 0 4.55776e-08 -5.80574e-08 0 0 0 0)
(-2.54873e-07 -7.35705e-07 0 -1.7474e-08 1.38194e-08 0 0 0 0)
(1.01394e-07 1.75366e-07 0 4.33459e-09 -3.75033e-09 0 0 0 0)
(-2.5357e-08 -4.19099e-08 0 -1.37499e-09 6.91006e-10 0 0 0 0)
(7.38022e-09 9.98895e-09 0 2.26436e-10 -3.86784e-10 0 0 0 0)
(-2.18873e-09 -2.51152e-09 0 -2.61564e-10 -7.82564e-11 0 0 0 0)
(6.89444e-10 4.37883e-10 0 -1.2097e-10 -1.26048e-10 0 0 0 0)
(-8.57875e-11 -2.95486e-10 0 -1.35851e-10 -8.84329e-11 0 0 0 0)
(1.25388e-10 -1.37779e-10 0 -1.01075e-10 -7.75794e-11 0 0 0 0)
(4.84638e-11 -1.92791e-10 0 -7.97702e-11 -6.28125e-11 0 0 0 0)
(5.58093e-11 -1.88035e-10 0 -5.72459e-11 -5.09178e-11 0 0 0 0)
(4.07389e-11 -1.84032e-10 0 -3.87331e-11 -3.9945e-11 0 0 0 0)
(2.75658e-11 -1.61185e-10 0 -2.3988e-11 -3.02425e-11 0 0 0 0)
(1.80249e-11 -1.31421e-10 0 -1.3146e-11 -2.22604e-11 0 0 0 0)
(1.75912e-11 -1.55398e-10 0 -4.22839e-12 -1.51471e-11 0 0 0 0)
(8.51099e-12 -1.93349e-10 0 1.70762e-12 -5.93185e-12 0 0 0 0)
(-2.33103e-12 -4.33361e-11 0 7.04731e-13 1.62657e-12 0 0 0 0)
(1.21124e-05 4.48054e-05 0 3.12369e-06 -3.44048e-06 0 0 0 0)
(-1.37663e-05 -5.56183e-05 0 -6.1271e-07 8.58898e-07 0 0 0 0)
(2.73977e-06 1.33659e-05 0 2.77598e-07 -2.04173e-07 0 0 0 0)
(-1.249e-06 -3.16614e-06 0 -5.2476e-08 5.09099e-08 0 0 0 0)
(2.36375e-07 7.61378e-07 0 2.03362e-08 -1.26196e-08 0 0 0 0)
(-9.31525e-08 -1.81419e-07 0 -5.24076e-09 2.89283e-09 0 0 0 0)
(2.3927e-08 4.33897e-08 0 1.32273e-09 -9.4187e-10 0 0 0 0)
(-6.55419e-09 -1.05129e-08 0 -6.06936e-10 3.50136e-11 0 0 0 0)
(2.29103e-09 2.39683e-09 0 -2.54245e-11 -1.90747e-10 0 0 0 0)
(-4.16605e-10 -7.22188e-10 0 -1.63877e-10 -1.15689e-10 0 0 0 0)
(2.76797e-10 3.37922e-12 0 -1.01264e-10 -1.16806e-10 0 0 0 0)
(5.12557e-11 -1.91029e-10 0 -9.33498e-11 -9.84344e-11 0 0 0 0)
(9.63585e-11 -1.62434e-10 0 -6.93076e-11 -8.50017e-11 0 0 0 0)
(6.64345e-11 -1.78842e-10 0 -5.1337e-11 -6.99327e-11 0 0 0 0)
(5.73001e-11 -1.71048e-10 0 -3.45318e-11 -5.59384e-11 0 0 0 0)
(4.12539e-11 -1.50912e-10 0 -2.15485e-11 -4.26691e-11 0 0 0 0)
(2.93006e-11 -1.22024e-10 0 -1.14654e-11 -3.16508e-11 0 0 0 0)
(2.10606e-11 -1.4548e-10 0 -3.68629e-12 -2.20993e-11 0 0 0 0)
(9.24282e-12 -1.83078e-10 0 1.40946e-12 -8.66353e-12 0 0 0 0)
(-2.27682e-12 -4.06544e-11 0 7.31836e-13 2.80357e-12 0 0 0 0)
(-1.07208e-05 -4.60392e-05 0 -3.49053e-06 3.03918e-06 0 0 0 0)
(1.2175e-05 5.71649e-05 0 6.9314e-07 -7.50892e-07 0 0 0 0)
(-2.41739e-06 -1.37492e-05 0 -3.11029e-07 1.7815e-07 0 0 0 0)
(1.10376e-06 3.25771e-06 0 6.03608e-08 -4.41704e-08 0 0 0 0)
(-2.07638e-07 -7.83722e-07 0 -2.30965e-08 1.06115e-08 0 0 0 0)
(8.23808e-08 1.87044e-07 0 5.89147e-09 -2.73564e-09 0 0 0 0)
(-2.07233e-08 -4.47677e-08 0 -1.77844e-09 5.16959e-10 0 0 0 0)
(6.03212e-09 1.07401e-08 0 4.13786e-10 -3.05915e-10 0 0 0 0)
(-1.74567e-09 -2.66223e-09 0 -2.60127e-10 -1.06784e-10 0 0 0 0)
(6.13604e-10 5.11823e-10 0 -7.44576e-11 -1.51998e-10 0 0 0 0)
(-1.52873e-11 -2.78231e-10 0 -1.11049e-10 -1.29437e-10 0 0 0 0)
(1.57345e-10 -1.05975e-10 0 -7.80355e-11 -1.19628e-10 0 0 0 0)
(9.0558e-11 -1.6429e-10 0 -6.38595e-11 -1.03619e-10 0 0 0 0)
(9.05309e-11 -1.58972e-10 0 -4.57262e-11 -8.68774e-11 0 0 0 0)
(7.0446e-11 -1.56768e-10 0 -3.14961e-11 -6.99754e-11 0 0 0 0)
(5.07678e-11 -1.36898e-10 0 -1.97054e-11 -5.37836e-11 0 0 0 0)
(3.586e-11 -1.10851e-10 0 -1.14112e-11 -4.02835e-11 0 0 0 0)
(3.04661e-11 -1.32411e-10 0 -3.90313e-12 -2.84121e-11 0 0 0 0)
(1.28749e-11 -1.68446e-10 0 1.73472e-12 -1.14492e-11 0 0 0 0)
(-4.47233e-12 -3.74761e-11 0 8.40257e-13 4.03775e-12 0 0 0 0)
(9.31505e-06 4.70937e-05 0 3.65615e-06 -2.61075e-06 0 0 0 0)
(-1.05868e-05 -5.84793e-05 0 -7.2323e-07 6.35495e-07 0 0 0 0)
(2.10699e-06 1.40726e-05 0 3.26416e-07 -1.50253e-07 0 0 0 0)
(-9.61065e-07 -3.33368e-06 0 -6.27275e-08 3.67475e-08 0 0 0 0)
(1.81905e-07 8.02813e-07 0 2.42271e-08 -8.74532e-09 0 0 0 0)
(-7.18345e-08 -1.91513e-07 0 -6.32388e-09 2.06065e-09 0 0 0 0)
(1.84493e-08 4.58194e-08 0 1.63194e-09 -6.17623e-10 0 0 0 0)
(-5.03588e-09 -1.11366e-08 0 -6.96844e-10 -1.59228e-11 0 0 0 0)
(1.80273e-09 2.55074e-09 0 1.85399e-11 -1.83252e-10 0 0 0 0)
(-2.67554e-10 -7.44842e-10 0 -1.52195e-10 -1.48746e-10 0 0 0 0)
(2.733e-10 3.57495e-11 0 -7.91468e-11 -1.50846e-10 0 0 0 0)
(9.84185e-11 -1.65211e-10 0 -7.65447e-11 -1.36505e-10 0 0 0 0)
(1.28695e-10 -1.29684e-10 0 -5.50775e-11 -1.20847e-10 0 0 0 0)
(9.87166e-11 -1.45198e-10 0 -4.09828e-11 -1.01848e-10 0 0 0 0)
(8.32938e-11 -1.37955e-10 0 -2.78911e-11 -8.25728e-11 0 0 0 0)
(6.13929e-11 -1.2122e-10 0 -1.7808e-11 -6.37494e-11 0 0 0 0)
(4.5157e-11 -9.66524e-11 0 -9.81203e-12 -4.80747e-11 0 0 0 0)
(3.41524e-11 -1.16646e-10 0 -3.55076e-12 -3.46271e-11 0 0 0 0)
(1.40133e-11 -1.50628e-10 0 1.13841e-12 -1.43397e-11 0 0 0 0)
(-4.8247e-12 -3.3243e-11 0 7.86047e-13 5.28576e-12 0 0 0 0)
(-7.78787e-06 -4.80144e-05 0 -3.70408e-06 2.18744e-06 0 0 0 0)
(8.84524e-06 5.96254e-05 0 7.29206e-07 -5.35811e-07 0 0 0 0)
(-1.75689e-06 -1.43479e-05 0 -3.29684e-07 1.27786e-07 0 0 0 0)
(8.01573e-07 3.39922e-06 0 6.31585e-08 -3.08371e-08 0 0 0 0)
(-1.51235e-07 -8.18409e-07 0 -2.45477e-08 7.70501e-09 0 0 0 0)
(5.97857e-08 1.95172e-07 0 6.10747e-09 -1.84359e-09 0 0 0 0)
(-1.50963e-08 -4.68443e-08 0 -1.92332e-09 3.49659e-10 0 0 0 0)
(4.41869e-09 1.11744e-08 0 4.1487e-10 -2.63461e-10 0 0 0 0)
(-1.20094e-09 -2.79505e-09 0 -2.69858e-10 -1.47194e-10 0 0 0 0)
(5.15945e-10 5.44229e-10 0 -6.35071e-11 -1.85241e-10 0 0 0 0)
(6.0363e-11 -2.65991e-10 0 -9.70361e-11 -1.69352e-10 0 0 0 0)
(1.81387e-10 -7.59756e-11 0 -6.28024e-11 -1.57416e-10 0 0 0 0)
(1.26039e-10 -1.29633e-10 0 -5.03883e-11 -1.38378e-10 0 0 0 0)
(1.17771e-10 -1.20698e-10 0 -3.53992e-11 -1.16813e-10 0 0 0 0)
(9.36751e-11 -1.1867e-10 0 -2.40693e-11 -9.45863e-11 0 0 0 0)
(6.87655e-11 -1.024e-10 0 -1.50975e-11 -7.28678e-11 0 0 0 0)
(5.01986e-11 -8.17287e-11 0 -8.78204e-12 -5.48346e-11 0 0 0 0)
(4.13894e-11 -9.8676e-11 0 -2.92735e-12 -3.96813e-11 0 0 0 0)
(1.72388e-11 -1.28533e-10 0 1.27394e-12 -1.66514e-11 0 0 0 0)
(-6.451e-12 -2.84222e-11 0 6.23416e-13 6.2188e-12 0 0 0 0)
(6.34018e-06 4.87453e-05 0 4.07645e-06 -1.75756e-06 0 0 0 0)
(-7.21244e-06 -6.0539e-05 0 -8.18637e-07 4.28898e-07 0 0 0 0)
(1.44094e-06 1.45776e-05 0 3.65027e-07 -1.002e-07 0 0 0 0)
(-6.55929e-07 -3.45376e-06 0 -7.21365e-08 2.56506e-08 0 0 0 0)
(1.24854e-07 8.31806e-07 0 2.70299e-08 -5.87332e-09 0 0 0 0)
(-4.921e-08 -1.98868e-07 0 -7.4222e-09 1.4807e-09 0 0 0 0)
(1.27567e-08 4.73996e-08 0 1.77091e-09 -5.09014e-10 0 0 0 0)
(-3.38241e-09 -1.16334e-08 0 -8.19792e-10 -9.12692e-11 0 0 0 0)
(1.32433e-09 2.62896e-09 0 2.95716e-11 -2.28179e-10 0 0 0 0)
(-9.47322e-11 -7.67e-10 0 -1.49349e-10 -1.95047e-10 0 0 0 0)
(2.73978e-10 6.35749e-11 0 -6.04714e-11 -1.9136e-10 0 0 0 0)
(1.45039e-10 -1.34237e-10 0 -5.86282e-11 -1.71266e-10 0 0 0 0)
(1.56098e-10 -8.90809e-11 0 -3.82452e-11 -1.50595e-10 0 0 0 0)
(1.2509e-10 -1.01406e-10 0 -2.73219e-11 -1.26098e-10 0 0 0 0)
(1.0365e-10 -9.40094e-11 0 -1.72388e-11 -1.01674e-10 0 0 0 0)
(7.66531e-11 -8.14687e-11 0 -9.89334e-12 -7.77506e-11 0 0 0 0)
(5.7273e-11 -6.34659e-11 0 -4.03865e-12 -5.86009e-11 0 0 0 0)
(4.42354e-11 -7.84629e-11 0 -3.52366e-13 -4.30123e-11 0 0 0 0)
(1.7537e-11 -1.04728e-10 0 9.75782e-13 -1.80894e-11 0 0 0 0)
(-6.69495e-12 -2.28104e-11 0 1.6263e-13 6.75352e-12 0 0 0 0)
(-4.53006e-06 -4.93431e-05 0 -3.82526e-06 1.29298e-06 0 0 0 0)
(5.13382e-06 6.12828e-05 0 7.55545e-07 -2.9089e-07 0 0 0 0)
(-1.01039e-06 -1.47512e-05 0 -3.46014e-07 6.86177e-08 0 0 0 0)
(4.63576e-07 3.49354e-06 0 6.58734e-08 -1.4063e-08 0 0 0 0)
(-8.65203e-08 -8.42579e-07 0 -2.69828e-08 3.16848e-09 0 0 0 0)
(3.45267e-08 2.00536e-07 0 6.37568e-09 -7.50994e-10 0 0 0 0)
(-8.49394e-09 -4.84163e-08 0 -2.25292e-09 -1.45433e-10 0 0 0 0)
(2.67744e-09 1.14553e-08 0 4.3116e-10 -2.64555e-10 0 0 0 0)
(-5.30527e-10 -2.89883e-09 0 -2.94469e-10 -2.48547e-10 0 0 0 0)
(4.25902e-10 5.81048e-10 0 -4.14165e-11 -2.29277e-10 0 0 0 0)
(1.51029e-10 -2.4221e-10 0 -7.8957e-11 -2.11462e-10 0 0 0 0)
(2.03749e-10 -3.52103e-11 0 -4.23923e-11 -1.87888e-10 0 0 0 0)
(1.57345e-10 -8.44647e-11 0 -3.44505e-11 -1.63559e-10 0 0 0 0)
(1.38724e-10 -7.1777e-11 0 -2.27411e-11 -1.36512e-10 0 0 0 0)
(1.11022e-10 -7.03226e-11 0 -1.50975e-11 -1.09988e-10 0 0 0 0)
(8.19657e-11 -5.93268e-11 0 -9.70361e-12 -8.46909e-11 0 0 0 0)
(5.97395e-11 -4.69904e-11 0 -6.74916e-12 -6.45648e-11 0 0 0 0)
(4.64039e-11 -5.81645e-11 0 -2.41235e-12 -4.65025e-11 0 0 0 0)
(1.7808e-11 -7.87676e-11 0 1.51788e-12 -1.80388e-11 0 0 0 0)
(-7.58942e-12 -1.70863e-11 0 6.50521e-13 7.55916e-12 0 0 0 0)
(3.27046e-06 4.97474e-05 0 3.58379e-06 -9.56424e-07 0 0 0 0)
(-3.73319e-06 -6.17634e-05 0 -6.42873e-07 3.34656e-07 0 0 0 0)
(7.51271e-07 1.48544e-05 0 2.94131e-07 -8.14659e-08 0 0 0 0)
(-3.36898e-07 -3.5192e-06 0 -5.12992e-08 2.45534e-08 0 0 0 0)
(6.53566e-08 8.45118e-07 0 1.90313e-08 -7.40498e-09 0 0 0 0)
(-2.44801e-08 -2.02182e-07 0 -5.40841e-09 1.3613e-09 0 0 0 0)
(6.81229e-09 4.7886e-08 0 9.78628e-10 -9.34579e-10 0 0 0 0)
(-1.42399e-09 -1.17366e-08 0 -5.80373e-10 -2.08194e-10 0 0 0 0)
(8.51695e-10 2.66424e-09 0 -8.75493e-12 -3.45321e-10 0 0 0 0)
(1.20834e-10 -7.29915e-10 0 -9.92316e-11 -2.59108e-10 0 0 0 0)
(2.73002e-10 1.04964e-10 0 -4.33952e-11 -2.41551e-10 0 0 0 0)
(1.89519e-10 -8.63344e-11 0 -4.10099e-11 -2.08379e-10 0 0 0 0)
(1.75803e-10 -3.77046e-11 0 -2.98156e-11 -1.80057e-10 0 0 0 0)
(1.4447e-10 -4.78346e-11 0 -2.41506e-11 -1.49244e-10 0 0 0 0)
(1.16687e-10 -4.21888e-11 0 -1.92717e-11 -1.20143e-10 0 0 0 0)
(8.50015e-11 -3.60455e-11 0 -1.69949e-11 -9.29568e-11 0 0 0 0)
(6.45371e-11 -2.52775e-11 0 -1.41217e-11 -7.11293e-11 0 0 0 0)
(5.24754e-11 -3.19369e-11 0 -6.88468e-12 -5.1775e-11 0 0 0 0)
(2.05727e-11 -5.0666e-11 0 1.35525e-12 -2.12385e-11 0 0 0 0)
(-8.83625e-12 -1.23307e-11 0 1.76183e-12 9.3728e-12 0 0 0 0)
(-1.58914e-06 -4.99648e-05 0 -2.04369e-06 4.47642e-07 0 0 0 0)
(1.84417e-06 6.21577e-05 0 3.62372e-07 -2.30216e-07 0 0 0 0)
(-4.18816e-07 -1.50613e-05 0 -1.54674e-07 5.32521e-08 0 0 0 0)
(1.88477e-07 3.5676e-06 0 2.99165e-08 -2.3332e-08 0 0 0 0)
(-4.06295e-08 -8.65771e-07 0 -6.25268e-09 4.85197e-09 0 0 0 0)
(1.6474e-08 2.07006e-07 0 5.18945e-09 -2.67928e-09 0 0 0 0)
(-3.6659e-09 -4.99858e-08 0 1.75345e-09 2.78634e-11 0 0 0 0)
(1.69003e-09 1.20445e-08 0 2.04307e-09 -5.79498e-10 0 0 0 0)
(-4.93583e-11 -2.94974e-09 0 1.48739e-09 -2.80114e-10 0 0 0 0)
(3.91207e-10 6.84818e-10 0 1.24071e-09 -2.94e-10 0 0 0 0)
(2.09305e-10 -1.91481e-10 0 9.75348e-10 -2.35016e-10 0 0 0 0)
(2.17274e-10 2.62836e-11 0 7.58427e-10 -2.07483e-10 0 0 0 0)
(1.74177e-10 -2.53304e-11 0 5.68529e-10 -1.74965e-10 0 0 0 0)
(1.49322e-10 -1.18621e-11 0 4.08473e-10 -1.44448e-10 0 0 0 0)
(1.18124e-10 -1.40352e-11 0 2.74764e-10 -1.15269e-10 0 0 0 0)
(8.71156e-11 -1.03135e-11 0 1.73635e-10 -8.82242e-11 0 0 0 0)
(6.99039e-11 -5.8086e-12 0 1.0262e-10 -6.89098e-11 0 0 0 0)
(6.19079e-11 -8.27373e-12 0 3.9221e-11 -5.71381e-11 0 0 0 0)
(2.64274e-11 -1.76199e-11 0 -1.17636e-11 -2.86992e-11 0 0 0 0)
(-1.07065e-11 -5.22065e-12 0 -7.80626e-12 1.11478e-11 0 0 0 0)
)
;

boundaryField
{
    movingWall
    {
        type            extrapolatedCalculated;
        value           nonuniform List<tensor> 
20
(
(-1.58914e-06 -4.99648e-05 0 8.20683e-06 0.00026378 0 0 0 0)
(1.84417e-06 6.21577e-05 0 -1.85027e-06 -6.39209e-05 0 0 0 0)
(-4.18816e-07 -1.50613e-05 0 8.30165e-07 1.51493e-05 0 0 0 0)
(1.88477e-07 3.5676e-06 0 -1.75005e-07 -3.67583e-06 0 0 0 0)
(-4.06295e-08 -8.65771e-07 0 7.62586e-08 8.78894e-07 0 0 0 0)
(1.6474e-08 2.07006e-07 0 -1.24873e-08 -2.12748e-07 0 0 0 0)
(-3.6659e-09 -4.99858e-08 0 1.03626e-08 5.08682e-08 0 0 0 0)
(1.69003e-09 1.20445e-08 0 2.17639e-09 -1.28044e-08 0 0 0 0)
(-4.93583e-11 -2.94974e-09 0 3.60245e-09 2.69002e-09 0 0 0 0)
(3.91207e-10 6.84818e-10 0 2.37375e-09 -1.0054e-09 0 0 0 0)
(2.09305e-10 -1.91481e-10 0 2.03766e-09 -4.9246e-11 0 0 0 0)
(2.17274e-10 2.62836e-11 0 1.53655e-09 -2.39476e-10 0 0 0 0)
(1.74177e-10 -2.53304e-11 0 1.16849e-09 -1.5438e-10 0 0 0 0)
(1.49322e-10 -1.18621e-11 0 8.39862e-10 -1.38154e-10 0 0 0 0)
(1.18124e-10 -1.40352e-11 0 5.71276e-10 -1.06932e-10 0 0 0 0)
(8.71156e-11 -1.03135e-11 0 3.67262e-10 -8.20133e-11 0 0 0 0)
(6.99039e-11 -5.8086e-12 0 2.22844e-10 -6.56781e-11 0 0 0 0)
(6.19079e-11 -8.27373e-12 0 8.7752e-11 -5.87789e-11 0 0 0 0)
(2.64274e-11 -1.76199e-11 0 -2.48246e-11 -3.25832e-11 0 0 0 0)
(-1.07065e-11 -5.22065e-12 0 -1.79856e-11 1.17006e-11 0 0 0 0)
)
;
    }
    fixedWalls
    {
        type            extrapolatedCalculated;
        value           nonuniform List<tensor> 
60
(
(4.66375e-06 0.000105118 0 -2.71383e-06 -8.89075e-07 0 0 0 0)
(-1.55191e-05 -0.000108674 0 5.40551e-06 2.70362e-06 0 0 0 0)
(2.62858e-05 0.000115932 0 -5.6205e-06 -4.56051e-06 0 0 0 0)
(-3.80011e-05 -0.000126916 0 5.85633e-06 6.37647e-06 0 0 0 0)
(4.97112e-05 0.000141438 0 -5.79755e-06 -8.00076e-06 0 0 0 0)
(-6.11913e-05 -0.000158919 0 5.47943e-06 8.97977e-06 0 0 0 0)
(7.16289e-05 0.000177357 0 -3.85107e-06 -8.07803e-06 0 0 0 0)
(-7.65956e-05 -0.000191231 0 1.39477e-06 6.17614e-06 0 0 0 0)
(7.7208e-05 0.000202062 0 4.61764e-07 -5.16285e-06 0 0 0 0)
(-7.47485e-05 -0.000211883 0 -1.46527e-06 4.63104e-06 0 0 0 0)
(7.13469e-05 0.000220586 0 2.19534e-06 -4.20916e-06 0 0 0 0)
(-6.59671e-05 -0.000228719 0 -2.72145e-06 3.8313e-06 0 0 0 0)
(6.04611e-05 0.000235911 0 3.12369e-06 -3.44048e-06 0 0 0 0)
(-5.34724e-05 -0.000242481 0 -3.49053e-06 3.03918e-06 0 0 0 0)
(4.6499e-05 0.000248068 0 3.65615e-06 -2.61075e-06 0 0 0 0)
(-3.88478e-05 -0.000252924 0 -3.70408e-06 2.18744e-06 0 0 0 0)
(3.16827e-05 0.000256818 0 4.07645e-06 -1.75756e-06 0 0 0 0)
(-2.2542e-05 -0.000259955 0 -3.82526e-06 1.29298e-06 0 0 0 0)
(1.63816e-05 0.00026199 0 3.58379e-06 -9.56424e-07 0 0 0 0)
(-8.20683e-06 -0.00026378 0 -2.04369e-06 4.47642e-07 0 0 0 0)
(1.10134e-11 9.35463e-12 0 -5.28549e-12 -9.25245e-12 0 0 0 0)
(1.01252e-11 2.76552e-11 0 2.98156e-13 -8.82804e-12 0 0 0 0)
(9.85878e-12 4.46668e-11 0 4.60786e-13 -8.21487e-12 0 0 0 0)
(8.26006e-12 6.05147e-11 0 5.69206e-13 -7.46612e-12 0 0 0 0)
(7.4607e-12 7.45313e-11 0 7.58942e-13 -6.50586e-12 0 0 0 0)
(5.32907e-12 8.65381e-11 0 8.13152e-13 -5.40539e-12 0 0 0 0)
(4.26326e-12 9.61528e-11 0 8.40257e-13 -4.20919e-12 0 0 0 0)
(1.86517e-12 1.03375e-10 0 8.40257e-13 -2.98787e-12 0 0 0 0)
(8.88178e-13 1.08104e-10 0 8.13152e-13 -1.78815e-12 0 0 0 0)
(-1.33227e-12 1.10527e-10 0 7.31836e-13 -6.38887e-13 0 0 0 0)
(-2.08722e-12 1.1066e-10 0 7.04731e-13 4.91054e-13 0 0 0 0)
(-4.04121e-12 1.08563e-10 0 7.04731e-13 1.62657e-12 0 0 0 0)
(-4.92939e-12 1.04154e-10 0 7.31836e-13 2.80357e-12 0 0 0 0)
(-6.9722e-12 9.7349e-11 0 8.40257e-13 4.03775e-12 0 0 0 0)
(-8.30447e-12 8.80026e-11 0 7.86047e-13 5.28576e-12 0 0 0 0)
(-1.02141e-11 7.62059e-11 0 6.23416e-13 6.2188e-12 0 0 0 0)
(-1.06581e-11 6.31274e-11 0 1.6263e-13 6.75352e-12 0 0 0 0)
(-1.0969e-11 4.91918e-11 0 6.50521e-13 7.55916e-12 0 0 0 0)
(-1.3145e-11 3.28907e-11 0 1.76183e-12 9.3728e-12 0 0 0 0)
(-1.79856e-11 1.17006e-11 0 -7.80626e-12 1.11478e-11 0 0 0 0)
(9.73021e-07 2.03668e-05 0 4.66375e-06 0.000105118 0 0 0 0)
(-1.07626e-06 -2.48801e-05 0 -7.71668e-07 -2.36509e-05 0 0 0 0)
(1.8112e-07 5.59713e-06 0 3.58699e-07 5.59753e-06 0 0 0 0)
(-8.30998e-08 -1.32659e-06 0 -4.71887e-08 -1.26233e-06 0 0 0 0)
(1.18879e-08 2.98871e-07 0 2.62996e-08 2.91151e-07 0 0 0 0)