/*--------------------------------*- C++ -*----------------------------------*\
| =========                 |                                                 |
| \\      /  F ield         | OpenFOAM: The Open Source CFD Toolbox           |
|  \\    /   O peration     | Version:  2506                                  |
|   \\  /    A nd           | Website:  www.openfoam.com                      |
|    \\/     M anipulation  |                                                 |
\*---------------------------------------------------------------------------*/
FoamFile
{
    version     2.0;
    format      ascii;
    arch        "LSB;label=32;scalar=64";
    class       volScalarField;
    location    "3.375";
    object      Lambda2Field;
}
// * * * * * * * * * * * * * * * * * * * * * * * * * * * * * * * * * * * * * //

dimensions      [0 0 -2 0 0 0 0];

internalField   nonuniform List<scalar> 
400
(
-5.43252e-11
-1.19961e-11
-1.25696e-12
-5.693e-14
-3.86838e-15
-4.51821e-16
1.86627e-17
-7.99179e-18
1.3284e-18
-1.81263e-19
9.46414e-20
3.30011e-20
3.04407e-20
1.96419e-20
1.27289e-20
7.85508e-21
4.96521e-21
2.86145e-21
5.58597e-22
9.81327e-23
-1.03897e-10
-1.36957e-11
-2.19601e-12
-2.62947e-14
-6.72724e-15
-1.78907e-16
-4.52971e-18
-1.47436e-18
0
2.27749e-20
6.89352e-20
5.0186e-20
4.02482e-20
2.74206e-20
1.76015e-20
1.04998e-20
5.96825e-21
3.09044e-21
3.15011e-22
5.50573e-23
-9.75872e-11
0
-1.62808e-12
0
-2.33334e-15
0
0
0
-5.31288e-20
9.28069e-20
4.40192e-20
5.36921e-20
3.77811e-20
2.71284e-20
1.70183e-20
9.93524e-21
5.68674e-21
3.00036e-21
2.40611e-22
5.74921e-23
-8.42949e-11
0
-6.81821e-13
0
0
0
0
0
8.11224e-20
0
7.13616e-20
4.29296e-20
3.74877e-20
2.50013e-20
1.60591e-20
9.43656e-21
5.13986e-21
2.4905e-21
1.31852e-22
2.36773e-23
-5.65542e-11
0
0
0
0
0
0
0
0
1.16011e-19
2.71967e-20
4.90704e-20
3.27055e-20
2.38314e-20
1.48103e-20
8.44765e-21
4.58426e-21
2.30501e-21
2.59814e-23
1.82778e-23
-1.42688e-11
0
0
0
0
0
0
0
2.38602e-19
9.59306e-21
6.92422e-20
3.40652e-20
3.19053e-20
2.10308e-20
1.35193e-20
7.69742e-21
3.89578e-21
1.72926e-21
0
-7.42499e-25
0
0
0
0
0
0
0
0
0
1.38806e-19
2.59163e-20
4.1078e-20
2.6264e-20
1.95514e-20
1.21066e-20
6.71716e-21
3.31735e-21
1.53628e-21
-1.36368e-22
-1.31569e-23
0
0
0
0
0
0
0
0
4.385e-19
0
6.21545e-20
2.77062e-20
2.54672e-20
1.6941e-20
1.09036e-20
5.9878e-21
2.77772e-21
1.12019e-21
-2.14239e-22
-2.7868e-23
4.44366e-11
3.67339e-12
3.32643e-13
0
0
0
0
2.1703e-18
0
1.56068e-19
1.96726e-20
3.2963e-20
2.12283e-20
1.57071e-20
9.80236e-21
5.31029e-21
2.38044e-21
9.88021e-22
-2.49854e-22
-3.1199e-23
8.05259e-11
1.46354e-11
1.53447e-12
6.29893e-14
5.57976e-15
2.59605e-16
2.91369e-17
0
6.52281e-19
0
5.44561e-20
2.24873e-20
2.07365e-20
1.42083e-20
9.11192e-21
4.87896e-21
2.1445e-21
8.45215e-22
-2.9061e-22
-3.3101e-23
1.09783e-10
2.29399e-11
2.45906e-12
1.06469e-13
9.6563e-15
5.98512e-16
2.79474e-17
4.93067e-18
0
1.45798e-19
1.12692e-20
2.56909e-20
1.8138e-20
1.35083e-20
8.6489e-21
4.64332e-21
1.99126e-21
7.83785e-22
-2.68759e-22
-3.14434e-23
1.32946e-10
2.96107e-11
3.16626e-12
1.43119e-13
1.30467e-14
7.74206e-16
5.8103e-17
2.41146e-18
6.63047e-19
0
4.75015e-20
1.99446e-20
1.77277e-20
1.33568e-20
8.72374e-21
4.62639e-21
2.05255e-21
8.86519e-22
-2.5773e-22
-2.51066e-23
1.51795e-10
3.48156e-11
3.75203e-12
1.68738e-13
1.56428e-14
9.5914e-16
5.82798e-17
6.38186e-18
0
1.31734e-19
1.33015e-20
2.04597e-20
1.84832e-20
1.35947e-20
9.03572e-21
4.95382e-21
2.25758e-21
9.79832e-22
-1.72611e-22
-2.18924e-23
1.69938e-10
4.01871e-11
4.30813e-12
1.98589e-13
1.82138e-14
1.10945e-15
7.98842e-17
4.53767e-18
7.0392e-19
0
3.11311e-20
2.25806e-20
1.86922e-20
1.48169e-20
9.83415e-21
5.27499e-21
2.55089e-21
1.32406e-21
-1.26445e-22
-1.14878e-23
1.78998e-10
4.26979e-11
4.6161e-12
2.10464e-13
1.95263e-14
1.21535e-15
7.51561e-17
7.76072e-18
8.08717e-20
1.35486e-19
1.99251e-20
2.23322e-20
2.17465e-20
1.56956e-20
1.0666e-20
5.92779e-21
2.98751e-21
1.58057e-21
2.48964e-23
0
1.82634e-10
4.37663e-11
4.74661e-12
2.1564e-13
2.01495e-14
1.19541e-15
9.02189e-17
4.70535e-18
7.75932e-19
0
2.94544e-20
2.95511e-20
2.24177e-20
1.79179e-20
1.16313e-20
6.27468e-21
3.23764e-21
1.86347e-21
1.13524e-22
2.09546e-23
2.01797e-10
4.97434e-11
5.33124e-12
2.498e-13
2.25182e-14
1.47823e-15
8.41994e-17
9.54534e-18
1.29808e-19
1.23525e-19
3.27742e-20
2.89064e-20
2.60857e-20
1.84181e-20
1.19582e-20
6.68169e-21
3.53651e-21
1.8777e-21
2.05354e-22
4.11127e-23
1.90422e-10
4.63865e-11
5.10882e-12
2.30329e-13
2.27452e-14
1.27912e-15
1.09099e-16
5.00905e-18
9.15391e-19
2.85029e-20
4.19341e-20
3.67945e-20
2.76673e-20
2.02677e-20
1.31591e-20
7.29406e-21
3.88596e-21
2.29363e-21
1.97566e-22
4.60259e-23
1.79199e-10
3.9818e-11
4.37578e-12
1.81135e-13
1.61385e-14
1.09534e-15
4.7736e-17
6.85493e-18
9.59214e-20
8.70316e-20
5.37921e-20
3.94578e-20
3.2031e-20
2.20268e-20
1.4429e-20
7.83783e-21
4.522e-21
2.90052e-21
3.54572e-22
5.63546e-23
1.02313e-10
2.25772e-11
2.33243e-12
1.07275e-13
5.43693e-15
1.08143e-15
-7.42089e-17
2.49437e-17
-4.30895e-18
9.36094e-19
-1.31528e-19
6.29835e-20
1.59366e-20
1.60199e-20
9.43052e-21
5.79835e-21
4.15249e-21
2.94026e-21
9.05682e-22
1.55383e-22
)
;

boundaryField
{
    movingWall
    {
        type            calculated;
        value           nonuniform List<scalar> 
20
(
0
0
0
0
0
0
0
2.90698e-17
-3.39007e-18
1.77863e-18
-3.46364e-19
8.75941e-20
0
9.1241e-21
3.41648e-21
2.93843e-21
3.01921e-21
2.72892e-21
1.13582e-21
2.08526e-22
)
;
    }
    fixedWalls
    {
        type            calculated;
        value           nonuniform List<scalar> 
60
(
-2.63522e-10
-3.46598e-10
0
0
0
0
0
0
1.1996e-10
3.31911e-10
5.01979e-10
6.37127e-10
7.48751e-10
8.55626e-10
9.1379e-10
9.41636e-10
1.04999e-09
9.96067e-10
9.3983e-10
5.39287e-10
3.61641e-23
8.61798e-23
8.80659e-23
9.01883e-23
9.88911e-23
9.87676e-23
9.85103e-23
9.03403e-23
8.86941e-23
8.12962e-23
7.82266e-23
7.91537e-23
8.40834e-23
9.81016e-23
9.71133e-23
8.61814e-23
5.58765e-23
8.91413e-23
1.45797e-22
3.29362e-23
9.59323e-11
2.03575e-11
2.04049e-12
6.95059e-14
8.00153e-15
1.53299e-18
9.12011e-17
-2.90775e-18
2.8191e-18
-4.39221e-19
1.26135e-19
8.28957e-21
2.15803e-20
1.19169e-20
7.90431e-21
5.25104e-21
3.86936e-21
2.23014e-21
7.69779e-22
1.21415e-22
)
;
    }
    frontAndBack
    {
        type            empty;
    }
}


// ************************************************************************* //
