/*--------------------------------*- C++ -*----------------------------------*\
| =========                 |                                                 |
| \\      /  F ield         | OpenFOAM: The Open Source CFD Toolbox           |
|  \\    /   O peration     | Version:  2506                                  |
|   \\  /    A nd           | Website:  www.openfoam.com                      |
|    \\/     M anipulation  |                                                 |
\*---------------------------------------------------------------------------*/
FoamFile
{
    version     2.0;
    format      ascii;
    arch        "LSB;label=32;scalar=64";
    class       volScalarField;
    location    "3.375";
    object      QField;
}
// * * * * * * * * * * * * * * * * * * * * * * * * * * * * * * * * * * * * * //

dimensions      [0 0 -2 0 0 0 0];

internalField   nonuniform List<scalar> 
400
(
5.44069e-11
1.29498e-11
1.28214e-12
6.31011e-14
3.99205e-15
4.75244e-16
-1.83708e-17
8.13622e-18
-1.34667e-18
1.86683e-19
-9.62228e-20
-3.30853e-20
-3.08159e-20
-1.9869e-20
-1.29411e-20
-7.94505e-21
-5.05179e-21
-2.91821e-21
-6.59613e-22
-1.02488e-22
1.05332e-10
2.42021e-11
2.54048e-12
1.06911e-13
9.15705e-15
5.42689e-16
3.03853e-17
2.66545e-18
-1.15183e-19
-4.10875e-20
-7.62857e-20
-5.19801e-20
-4.05779e-20
-2.76291e-20
-1.77688e-20
-1.05645e-20
-6.15998e-21
-3.17227e-21
-4.10769e-22
-6.41105e-23
1.01833e-10
2.26694e-11
2.60519e-12
9.69317e-14
9.08315e-15
4.98063e-16
3.3757e-17
1.07255e-18
3.04077e-19
-1.3943e-19
-5.36053e-20
-5.64944e-20
-3.85685e-20
-2.7193e-20
-1.72068e-20
-1.0034e-20
-5.82828e-21
-3.09489e-21
-3.19819e-22
-5.81699e-23
9.46836e-11
2.03724e-11
2.76595e-12
8.52084e-14
9.6489e-15
5.20242e-16
2.32879e-17
3.91125e-18
-4.46877e-19
1.23361e-20
-8.82997e-20
-4.65e-20
-3.83439e-20
-2.53255e-20
-1.6205e-20
-9.50787e-21
-5.31338e-21
-2.5784e-21
-2.1202e-22
-3.16258e-23
7.77236e-11
1.57382e-11
2.79286e-12
6.46895e-14
9.79852e-15
4.00759e-16
4.05089e-17
-4.95999e-19
6.1752e-19
-2.02495e-19
-3.82305e-20
-5.40416e-20
-3.37242e-20
-2.4055e-20
-1.49544e-20
-8.50903e-21
-4.68616e-21
-2.38834e-21
-7.92122e-23
-1.93317e-23
5.67145e-11
1.015e-11
2.89713e-12
4.18527e-14
9.96602e-15
5.21278e-16
6.16819e-18
5.90754e-18
-8.39594e-19
6.40189e-20
-9.15415e-20
-3.78227e-20
-3.30498e-20
-2.13716e-20
-1.36124e-20
-7.78234e-21
-4.04426e-21
-1.80213e-21
4.37133e-23
7.10463e-24
1.43753e-11
-1.77201e-12
2.23926e-12
-3.11785e-14
9.90541e-15
-3.44285e-17
4.5469e-17
-2.90675e-18
7.67574e-19
-2.25471e-19
-2.26234e-20
-4.57216e-20
-2.71877e-20
-1.97657e-20
-1.22108e-20
-6.73974e-21
-3.37861e-21
-1.59087e-21
1.70393e-22
1.49939e-23
-4.43463e-11
-1.41837e-11
3.75576e-13
-6.62213e-14
1.76455e-15
-2.71982e-18
-2.24869e-17
3.90949e-18
-9.08248e-19
7.20592e-20
-7.59645e-20
-2.85735e-20
-2.62192e-20
-1.71694e-20
-1.09492e-20
-6.03871e-21
-2.8631e-21
-1.15843e-21
2.4583e-22
3.11263e-23
-9.78229e-11
-2.61632e-11
-1.38578e-12
-1.29723e-13
-5.39613e-15
-5.94997e-16
-2.35382e-17
-4.87445e-18
2.45107e-19
-1.78526e-19
-1.77347e-20
-3.43151e-20
-2.13649e-20
-1.57822e-20
-9.83811e-21
-5.31159e-21
-2.40184e-21
-1.00449e-21
2.58128e-22
3.26233e-23
-1.28583e-10
-3.36535e-11
-2.41566e-12
-1.75066e-13
-1.04858e-14
-8.34309e-16
-5.80415e-17
-2.39719e-18
-6.5949e-19
1.49517e-20
-5.03625e-20
-2.34142e-20
-2.0647e-20
-1.42338e-20
-9.114e-21
-4.87686e-21
-2.14327e-21
-8.44426e-22
3.01408e-22
3.3665e-23
-1.52266e-10
-3.91992e-11
-3.21918e-12
-1.9809e-13
-1.39966e-14
-9.9521e-16
-6.25794e-17
-5.67539e-18
-1.96707e-19
-1.03911e-19
-2.42862e-20
-2.54385e-20
-1.86889e-20
-1.35978e-20
-8.69103e-21
-4.65087e-21
-2.01095e-21
-7.94071e-22
2.74497e-22
3.17777e-23
-1.68962e-10
-4.31474e-11
-3.7945e-12
-2.18766e-13
-1.63779e-14
-1.1404e-15
-7.51474e-17
-5.11641e-18
-4.85641e-19
-3.39327e-20
-3.25555e-20
-2.36536e-20
-1.84231e-20
-1.36059e-20
-8.75545e-21
-4.70017e-21
-2.12889e-21
-9.2354e-22
2.79681e-22
2.67487e-23
-1.81631e-10
-4.59018e-11
-4.26973e-12
-2.29732e-13
-1.84664e-14
-1.22025e-15
-7.99288e-17
-6.61012e-18
-3.76067e-19
-7.01535e-20
-3.19894e-20
-2.28779e-20
-1.94485e-20
-1.38271e-20
-9.11189e-21
-5.0122e-21
-2.32644e-21
-1.00171e-21
1.77966e-22
2.33691e-23
-1.93284e-10
-4.87654e-11
-4.70705e-12
-2.45391e-13
-2.03046e-14
-1.32733e-15
-9.033e-17
-6.28941e-18
-5.06108e-19
-5.51575e-20
-2.89187e-20
-2.70926e-20
-1.9875e-20
-1.51343e-20
-9.86708e-21
-5.42809e-21
-2.70951e-21
-1.38242e-21
1.448e-22
1.34314e-23
-1.96501e-10
-4.90219e-11
-4.9101e-12
-2.4443e-13
-2.10406e-14
-1.35913e-15
-8.61693e-17
-7.68028e-18
-3.77644e-19
-7.35637e-20
-3.83968e-20
-2.60806e-20
-2.2695e-20
-1.60047e-20
-1.07255e-20
-6.07246e-21
-3.11927e-21
-1.59678e-21
-2.94701e-23
6.28348e-25
-1.94885e-10
-4.82186e-11
-4.95478e-12
-2.39408e-13
-2.12554e-14
-1.30223e-15
-9.53752e-17
-5.8001e-18
-5.77494e-19
-6.10117e-20
-3.60333e-20
-3.33246e-20
-2.3973e-20
-1.80298e-20
-1.17167e-20
-6.55677e-21
-3.47036e-21
-1.93125e-21
-1.23306e-22
-2.23986e-23
-2.09851e-10
-5.26528e-11
-5.46558e-12
-2.65967e-13
-2.3217e-14
-1.54891e-15
-9.04336e-17
-9.2283e-18
-3.79926e-19
-9.60734e-20
-4.85839e-20
-3.27104e-20
-2.69145e-20
-1.85442e-20
-1.21591e-20
-6.76582e-21
-3.61256e-21
-1.93032e-21
-2.15041e-22
-4.15048e-23
-1.94608e-10
-4.77953e-11
-5.17344e-12
-2.36651e-13
-2.30093e-14
-1.30448e-15
-1.07843e-16
-5.64739e-18
-7.21754e-19
-7.35844e-20
-5.10612e-20
-3.97745e-20
-2.8645e-20
-2.05697e-20
-1.32728e-20
-7.51743e-21
-4.17422e-21
-2.29821e-21
-2.01676e-22
-4.62546e-23
-1.81412e-10
-4.09553e-11
-4.43034e-12
-1.88804e-13
-1.65677e-14
-1.12681e-15
-5.32292e-17
-6.51512e-18
-2.70783e-19
-1.0374e-19
-6.13891e-20
-4.30322e-20
-3.27789e-20
-2.27165e-20
-1.48322e-20
-8.51405e-21
-4.94744e-21
-2.93679e-21
-3.68269e-22
-6.10957e-23
-1.02824e-10
-2.29488e-11
-2.35189e-12
-1.11128e-13
-5.61052e-15
-1.11839e-15
8.75456e-17
-2.55872e-17
4.40124e-18
-9.64673e-19
1.3757e-19
-6.50149e-20
-1.6074e-20
-1.67239e-20
-9.75961e-21
-5.89492e-21
-4.22099e-21
-3.2128e-21
-9.6572e-22
-1.60108e-22
)
;

boundaryField
{
    movingWall
    {
        type            calculated;
        value           nonuniform List<scalar> 
20
(
-9.13108e-12
-2.87243e-12
6.15857e-12
-6.84578e-14
3.03134e-14
-9.19858e-16
3.31503e-16
-4.78534e-17
1.04935e-17
-2.0189e-18
3.79865e-19
-9.24179e-20
2.70866e-21
-1.06669e-20
-4.61323e-21
-3.35689e-21
-3.29675e-21
-2.91285e-21
-1.2985e-21
-2.19169e-22
)
;
    }
    fixedWalls
    {
        type            calculated;
        value           nonuniform List<scalar> 
60
(
2.81126e-10
5.45482e-10
5.31721e-10
5.00951e-10
4.22269e-10
3.21304e-10
1.04395e-10
-2.06342e-10
-4.91918e-10
-6.56628e-10
-7.84573e-10
-8.75188e-10
-9.44929e-10
-1.0089e-09
-1.02837e-09
-1.02183e-09
-1.10259e-09
-1.02354e-09
-9.54583e-10
-5.4276e-10
-5.24573e-23
-9.76315e-23
-1.0157e-22
-9.61159e-23
-1.05103e-22
-9.91743e-23
-9.87379e-23
-9.24343e-23
-8.94934e-23
-8.00369e-23
-7.90104e-23
-8.30812e-23
-9.00433e-23
-1.0995e-22
-1.1307e-22
-1.11027e-22
-8.22464e-23
-1.14917e-22
-1.81154e-22
-1.09163e-22
7.29638e-12
6.25536e-12
-9.93861e-13
4.22991e-14
-4.39904e-15
3.69496e-16
-7.8152e-17
1.46185e-17
-3.00682e-18
4.97268e-19
-1.36806e-19
-1.0586e-20
-2.20817e-20
-1.19594e-20
-8.05646e-21
-5.39034e-21
-3.87559e-21
-2.36783e-21
-8.90223e-22
-1.26665e-22
)
;
    }
    frontAndBack
    {
        type            empty;
    }
}


// ************************************************************************* //
