/*--------------------------------*- C++ -*----------------------------------*\
| =========                 |                                                 |
| \\      /  F ield         | OpenFOAM: The Open Source CFD Toolbox           |
|  \\    /   O peration     | Version:  2506                                  |
|   \\  /    A nd           | Website:  www.openfoam.com                      |
|    \\/     M anipulation  |                                                 |
\*---------------------------------------------------------------------------*/
FoamFile
{
    version     2.0;
    format      ascii;
    arch        "LSB;label=32;scalar=64";
    class       volVectorField;
    location    "3.375";
    object      vorticityField;
}
// * * * * * * * * * * * * * * * * * * * * * * * * * * * * * * * * * * * * * //

dimensions      [0 0 -1 0 0 0 0];

internalField   nonuniform List<vector> 
400
(
(0 -0 2.30806e-05)
(0 -0 -2.54088e-05)
(0 -0 5.82756e-06)
(0 -0 -1.37471e-06)
(0 -0 3.12288e-07)
(0 -0 -7.58908e-08)
(0 -0 1.47566e-08)
(0 -0 -5.8984e-09)
(0 -0 -7.5864e-10)
(0 -0 -1.58853e-09)
(0 -0 -1.05935e-09)
(0 -0 -8.75812e-10)
(0 -0 -6.48652e-10)
(0 -0 -4.71011e-10)
(0 -0 -3.21833e-10)
(0 -0 -2.04559e-10)
(0 -0 -1.14316e-10)
(0 -0 -4.59628e-11)
(0 -0 -5.1932e-12)
(0 -0 1.2208e-12)
(0 -0 -2.64711e-05)
(0 -0 2.67519e-05)
(0 -0 -6.2343e-06)
(0 -0 1.45234e-06)
(0 -0 -3.38178e-07)
(0 -0 7.87479e-08)
(0 -0 -1.83015e-08)
(0 -0 4.27266e-09)
(0 -0 -9.87067e-10)
(0 -0 2.25665e-10)
(0 -0 -6.65143e-11)
(0 -0 -8.73143e-12)
(0 -0 -3.24106e-11)
(0 -0 -3.47335e-11)
(0 -0 -3.80198e-11)
(0 -0 -3.54524e-11)
(0 -0 -3.04513e-11)
(0 -0 -3.93459e-11)
(0 -0 -5.07219e-11)
(0 -0 -1.15933e-11)
(0 -0 2.80827e-05)
(0 -0 -2.84994e-05)
(0 -0 6.641e-06)
(0 -0 -1.54665e-06)
(0 -0 3.60206e-07)
(0 -0 -8.37352e-08)
(0 -0 1.95593e-08)
(0 -0 -4.4857e-09)
(0 -0 1.08486e-09)
(0 -0 -2.32049e-10)
(0 -0 5.13738e-11)
(0 -0 -3.60456e-11)
(0 -0 -3.68163e-11)
(0 -0 -5.30388e-11)
(0 -0 -5.83359e-11)
(0 -0 -5.61193e-11)
(0 -0 -4.88763e-11)
(0 -0 -6.39591e-11)
(0 -0 -8.28601e-11)
(0 -0 -1.91885e-11)
(0 -0 -3.04317e-05)
(0 -0 3.11511e-05)
(0 -0 -7.26635e-06)
(0 -0 1.6942e-06)
(0 -0 -3.94707e-07)
(0 -0 9.20715e-08)
(0 -0 -2.13342e-08)
(0 -0 5.05114e-09)
(0 -0 -1.11819e-09)
(0 -0 2.87057e-10)
(0 -0 -7.04386e-11)
(0 -0 -1.6674e-11)
(0 -0 -5.78944e-11)
(0 -0 -7.06056e-11)
(0 -0 -7.99924e-11)
(0 -0 -7.65992e-11)
(0 -0 -6.6879e-11)
(0 -0 -8.71839e-11)
(0 -0 -1.12588e-10)
(0 -0 -2.60687e-11)
(0 -0 3.31383e-05)
(0 -0 -3.45807e-05)
(0 -0 8.08571e-06)
(0 -0 -1.88955e-06)
(0 -0 4.41629e-07)
(0 -0 -1.02983e-07)
(0 -0 2.41721e-08)
(0 -0 -5.53614e-09)
(0 -0 1.36116e-09)
(0 -0 -2.84593e-10)
(0 -0 6.1318e-11)
(0 -0 -5.55838e-11)
(0 -0 -6.38236e-11)
(0 -0 -8.95132e-11)
(0 -0 -9.87569e-11)
(0 -0 -9.50152e-11)
(0 -0 -8.2774e-11)
(0 -0 -1.0781e-10)
(0 -0 -1.39127e-10)
(0 -0 -3.24456e-11)
(0 -0 -3.61548e-05)
(0 -0 3.8677e-05)
(0 -0 -9.07018e-06)
(0 -0 2.12569e-06)
(0 -0 -4.97718e-07)
(0 -0 1.16705e-07)
(0 -0 -2.71635e-08)
(0 -0 6.47372e-09)
(0 -0 -1.43427e-09)
(0 -0 3.71753e-10)
(0 -0 -9.41267e-11)
(0 -0 -2.73909e-11)
(0 -0 -8.41071e-11)
(0 -0 -1.02782e-10)
(0 -0 -1.15991e-10)
(0 -0 -1.10925e-10)
(0 -0 -9.6845e-11)
(0 -0 -1.25633e-10)
(0 -0 -1.61627e-10)
(0 -0 -3.76583e-11)
(0 -0 3.7967e-05)
(0 -0 -4.2729e-05)
(0 -0 1.00703e-05)
(0 -0 -2.37084e-06)
(0 -0 5.58112e-07)
(0 -0 -1.31087e-07)
(0 -0 3.09849e-08)
(0 -0 -7.15101e-09)
(0 -0 1.76544e-09)
(0 -0 -3.75884e-10)
(0 -0 7.81091e-11)
(0 -0 -7.49233e-11)
(0 -0 -8.45465e-11)
(0 -0 -1.1757e-10)
(0 -0 -1.29104e-10)
(0 -0 -1.24192e-10)
(0 -0 -1.08208e-10)
(0 -0 -1.3985e-10)
(0 -0 -1.79642e-10)
(0 -0 -4.17673e-11)
(0 -0 -3.79398e-05)
(0 -0 4.55247e-05)
(0 -0 -1.08038e-05)
(0 -0 2.56325e-06)
(0 -0 -6.07589e-07)
(0 -0 1.4416e-07)
(0 -0 -3.39489e-08)
(0 -0 8.16255e-09)
(0 -0 -1.83816e-09)
(0 -0 4.7203e-10)
(0 -0 -1.24593e-10)
(0 -0 -3.36752e-11)
(0 -0 -1.03633e-10)
(0 -0 -1.24787e-10)
(0 -0 -1.40209e-10)
(0 -0 -1.33925e-10)
(0 -0 -1.16782e-10)
(0 -0 -1.5034e-10)
(0 -0 -1.92531e-10)
(0 -0 -4.46309e-11)
(0 -0 3.80462e-05)
(0 -0 -4.76344e-05)
(0 -0 1.13162e-05)
(0 -0 -2.68756e-06)
(0 -0 6.38532e-07)
(0 -0 -1.51448e-07)
(0 -0 3.61473e-08)
(0 -0 -8.4504e-09)
(0 -0 2.09738e-09)
(0 -0 -4.62127e-10)
(0 -0 9.26944e-11)
(0 -0 -9.05991e-11)
(0 -0 -9.73252e-11)
(0 -0 -1.34438e-10)
(0 -0 -1.46497e-10)
(0 -0 -1.40506e-10)
(0 -0 -1.22238e-10)
(0 -0 -1.5676e-10)
(0 -0 -2.00238e-10)
(0 -0 -4.61779e-11)
(0 -0 -3.88545e-05)
(0 -0 4.97114e-05)
(0 -0 -1.18132e-05)
(0 -0 2.80666e-06)
(0 -0 -6.66573e-07)
(0 -0 1.58583e-07)
(0 -0 -3.75154e-08)
(0 -0 9.05219e-09)
(0 -0 -2.06636e-09)
(0 -0 5.24247e-10)
(0 -0 -1.45573e-10)
(0 -0 -3.79192e-11)
(0 -0 -1.13927e-10)
(0 -0 -1.34658e-10)
(0 -0 -1.50435e-10)
(0 -0 -1.43126e-10)
(0 -0 -1.24436e-10)
(0 -0 -1.58953e-10)
(0 -0 -2.03175e-10)
(0 -0 -4.65196e-11)
(0 -0 3.97417e-05)
(0 -0 -5.15966e-05)
(0 -0 1.22689e-05)
(0 -0 -2.9168e-06)
(0 -0 6.93805e-07)
(0 -0 -1.64818e-07)
(0 -0 3.93698e-08)
(0 -0 -9.23854e-09)
(0 -0 2.27788e-09)
(0 -0 -5.13846e-10)
(0 -0 9.78082e-11)
(0 -0 -9.81737e-11)
(0 -0 -1.00869e-10)
(0 -0 -1.37931e-10)
(0 -0 -1.49142e-10)
(0 -0 -1.42522e-10)
(0 -0 -1.23269e-10)
(0 -0 -1.57201e-10)
(0 -0 -2.01288e-10)
(0 -0 -4.56644e-11)
(0 -0 -4.07361e-05)
(0 -0 5.33967e-05)
(0 -0 -1.27006e-05)
(0 -0 3.02058e-06)
(0 -0 -7.18231e-07)
(0 -0 1.71032e-07)
(0 -0 -4.05349e-08)
(0 -0 9.76252e-09)
(0 -0 -2.24996e-09)
(0 -0 5.58853e-10)
(0 -0 -1.59636e-10)
(0 -0 -3.67047e-11)
(0 -0 -1.13021e-10)
(0 -0 -1.30789e-10)
(0 -0 -1.45299e-10)
(0 -0 -1.37197e-10)
(0 -0 -1.18275e-10)
(0 -0 -1.5117e-10)
(0 -0 -1.95057e-10)
(0 -0 -4.40408e-11)
(0 -0 4.16817e-05)
(0 -0 -5.50056e-05)
(0 -0 1.30883e-05)
(0 -0 -3.11366e-06)
(0 -0 7.41042e-07)
(0 -0 -1.76178e-07)
(0 -0 4.2067e-08)
(0 -0 -9.90592e-09)
(0 -0 2.42225e-09)
(0 -0 -5.58311e-10)
(0 -0 1.04644e-10)
(0 -0 -9.76797e-11)
(0 -0 -9.31263e-11)
(0 -0 -1.27505e-10)
(0 -0 -1.36517e-10)
(0 -0 -1.29364e-10)
(0 -0 -1.10558e-10)
(0 -0 -1.41794e-10)
(0 -0 -1.84487e-10)
(0 -0 -4.13863e-11)
(0 -0 -4.25486e-05)
(0 -0 5.64718e-05)
(0 -0 -1.34381e-05)
(0 -0 3.19735e-06)
(0 -0 -7.60625e-07)
(0 -0 1.81153e-07)
(0 -0 -4.29893e-08)
(0 -0 1.03263e-08)
(0 -0 -2.4021e-09)
(0 -0 5.86281e-10)
(0 -0 -1.67182e-10)
(0 -0 -2.79397e-11)
(0 -0 -1.0043e-10)
(0 -0 -1.13245e-10)
(0 -0 -1.25272e-10)
(0 -0 -1.17192e-10)
(0 -0 -9.94399e-11)
(0 -0 -1.28508e-10)
(0 -0 -1.70181e-10)
(0 -0 -3.83164e-11)
(0 -0 4.34375e-05)
(0 -0 -5.77561e-05)
(0 -0 1.37462e-05)
(0 -0 -3.27095e-06)
(0 -0 7.78585e-07)
(0 -0 -1.85189e-07)
(0 -0 4.41875e-08)
(0 -0 -1.04398e-08)
(0 -0 2.5322e-09)
(0 -0 -5.92647e-10)
(0 -0 1.14896e-10)
(0 -0 -8.86667e-11)
(0 -0 -7.46062e-11)
(0 -0 -1.04215e-10)
(0 -0 -1.10063e-10)
(0 -0 -1.03412e-10)
(0 -0 -8.68404e-11)
(0 -0 -1.13095e-10)
(0 -0 -1.51766e-10)
(0 -0 -3.4029e-11)
(0 -0 -4.43103e-05)
(0 -0 5.88962e-05)
(0 -0 -1.40182e-05)
(0 -0 3.33606e-06)
(0 -0 -7.93861e-07)
(0 -0 1.89064e-07)
(0 -0 -4.4921e-08)
(0 -0 1.07596e-08)
(0 -0 -2.52519e-09)
(0 -0 6.07736e-10)
(0 -0 -1.68954e-10)
(0 -0 -1.31732e-11)
(0 -0 -7.92448e-11)
(0 -0 -8.52986e-11)
(0 -0 -9.46006e-11)
(0 -0 -8.73023e-11)
(0 -0 -7.29467e-11)
(0 -0 -9.57487e-11)
(0 -0 -1.29807e-10)
(0 -0 -2.90456e-11)
(0 -0 4.46689e-05)
(0 -0 -5.97204e-05)
(0 -0 1.42125e-05)
(0 -0 -3.38162e-06)
(0 -0 8.04776e-07)
(0 -0 -1.91446e-07)
(0 -0 4.56287e-08)
(0 -0 -1.08137e-08)
(0 -0 2.59939e-09)
(0 -0 -6.17651e-10)
(0 -0 1.24046e-10)
(0 -0 -7.56089e-11)
(0 -0 -5.08357e-11)
(0 -0 -7.40839e-11)
(0 -0 -7.67706e-11)
(0 -0 -7.15753e-11)
(0 -0 -5.94273e-11)
(0 -0 -7.81105e-11)
(0 -0 -1.05703e-10)
(0 -0 -2.2973e-11)
(0 -0 -4.55178e-05)
(0 -0 6.05272e-05)
(0 -0 -1.44052e-05)
(0 -0 3.42767e-06)
(0 -0 -8.15596e-07)
(0 -0 1.9416e-07)
(0 -0 -4.61634e-08)
(0 -0 1.10241e-08)
(0 -0 -2.60436e-09)
(0 -0 6.22464e-10)
(0 -0 -1.63253e-10)
(0 -0 7.18203e-12)
(0 -0 -5.00142e-11)
(0 -0 -4.90359e-11)
(0 -0 -5.52251e-11)
(0 -0 -4.96232e-11)
(0 -0 -4.02412e-11)
(0 -0 -5.57522e-11)
(0 -0 -8.02855e-11)
(0 -0 -1.77369e-11)
(0 -0 4.61636e-05)
(0 -0 -6.11205e-05)
(0 -0 1.45603e-05)
(0 -0 -3.46791e-06)
(0 -0 8.26087e-07)
(0 -0 -1.96774e-07)
(0 -0 4.69074e-08)
(0 -0 -1.11562e-08)
(0 -0 2.673e-09)
(0 -0 -6.30684e-10)
(0 -0 1.48359e-10)
(0 -0 -4.53245e-11)
(0 -0 -7.88905e-12)
(0 -0 -2.3684e-11)
(0 -0 -2.29171e-11)
(0 -0 -1.90506e-11)
(0 -0 -1.11558e-11)
(0 -0 -2.50522e-11)
(0 -0 -5.20213e-11)
(0 -0 -1.40926e-11)
(0 -0 -4.79212e-05)
(0 -0 6.17954e-05)
(0 -0 -1.49066e-05)
(0 -0 3.53769e-06)
(0 -0 -8.59518e-07)
(0 -0 2.01817e-07)
(0 -0 -5.17392e-08)
(0 -0 1.00015e-08)
(0 -0 -4.43713e-09)
(0 -0 -5.55889e-10)
(0 -0 -1.16683e-09)
(0 -0 -7.32143e-10)
(0 -0 -5.93859e-10)
(0 -0 -4.20335e-10)
(0 -0 -2.88799e-10)
(0 -0 -1.83948e-10)
(0 -0 -1.08428e-10)
(0 -0 -4.74947e-11)
(0 -0 -5.8563e-12)
(0 -0 2.58561e-12)
)
;

boundaryField
{
    movingWall
    {
        type            calculated;
        value           nonuniform List<vector> 
20
(
(0 -0 -5.81717e-05)
(0 -0 6.4008e-05)
(0 -0 -1.58914e-05)
(0 -0 3.74261e-06)
(0 -0 -9.42029e-07)
(0 -0 2.19494e-07)
(0 -0 -6.03483e-08)
(0 -0 9.86815e-09)
(0 -0 -6.55219e-09)
(0 -0 -1.68893e-09)
(0 -0 -2.22914e-09)
(0 -0 -1.51027e-09)
(0 -0 -1.19382e-09)
(0 -0 -8.51724e-10)
(0 -0 -5.85312e-10)
(0 -0 -3.77575e-10)
(0 -0 -2.28653e-10)
(0 -0 -9.60258e-11)
(0 -0 7.2047e-12)
(0 -0 1.2765e-11)
)
;
    }
    fixedWalls
    {
        type            calculated;
        value           nonuniform List<vector> 
60
(
(0 -0 0.000107832)
(0 -0 -0.00011408)
(0 -0 0.000121553)
(0 -0 -0.000132773)
(0 -0 0.000147236)
(0 -0 -0.000164399)
(0 -0 0.000181208)
(0 -0 -0.000192626)
(0 -0 0.0002016)
(0 -0 -0.000210418)
(0 -0 0.000218391)
(0 -0 -0.000225998)
(0 -0 0.000232788)
(0 -0 -0.000238991)
(0 -0 0.000244412)
(0 -0 -0.00024922)
(0 -0 0.000252741)
(0 -0 -0.000256129)
(0 -0 0.000258406)
(0 -0 -0.000261737)
(0 -0 1.46401e-11)
(0 -0 2.7357e-11)
(0 -0 4.4206e-11)
(0 -0 5.99455e-11)
(0 -0 7.37723e-11)
(0 -0 8.57249e-11)
(0 -0 9.53126e-11)
(0 -0 1.02535e-10)
(0 -0 1.07291e-10)
(0 -0 1.09796e-10)
(0 -0 1.09955e-10)
(0 -0 1.07859e-10)
(0 -0 1.03422e-10)
(0 -0 9.65087e-11)
(0 -0 8.72165e-11)
(0 -0 7.55825e-11)
(0 -0 6.29648e-11)
(0 -0 4.85413e-11)
(0 -0 3.11289e-11)
(0 -0 1.95069e-11)
(0 -0 1.5703e-05)
(0 -0 -2.41084e-05)
(0 -0 5.23843e-06)
(0 -0 -1.27941e-06)
(0 -0 2.72572e-07)
(0 -0 -6.9316e-08)
(0 -0 1.02378e-08)
(0 -0 -7.16163e-09)
(0 -0 -2.58992e-09)
(0 -0 -2.91226e-09)
(0 -0 -2.17353e-09)
(0 -0 -1.72978e-09)
(0 -0 -1.29208e-09)
(0 -0 -9.31253e-10)
(0 -0 -6.33264e-10)
(0 -0 -3.99079e-10)
(0 -0 -2.21425e-10)
(0 -0 -8.02474e-11)
(0 -0 7.73626e-12)
(0 -0 6.94873e-12)
)
;
    }
    frontAndBack
    {
        type            empty;
    }
}


// ************************************************************************* //
