/*--------------------------------*- C++ -*----------------------------------*\
| =========                 |                                                 |
| \\      /  F ield         | OpenFOAM: The Open Source CFD Toolbox           |
|  \\    /   O peration     | Version:  2506                                  |
|   \\  /    A nd           | Website:  www.openfoam.com                      |
|    \\/     M anipulation  |                                                 |
\*---------------------------------------------------------------------------*/
FoamFile
{
    version     2.0;
    format      ascii;
    arch        "LSB;label=32;scalar=64";
    class       volVectorField;
    location    "3.375";
    object      zeroGradient(U);
}
// * * * * * * * * * * * * * * * * * * * * * * * * * * * * * * * * * * * * * //

dimensions      [0 1 -1 0 0 0 0];

internalField   nonuniform List<vector> 
400
(
(-1 2.62795e-07 0)
(-1 -5.91271e-08 0)
(-1 1.39938e-08 0)
(-1 -3.15583e-09 0)
(-1 7.27877e-10 0)
(-1 -1.67112e-10 0)
(-1 3.83464e-11 0)
(-1 -7.87173e-12 0)
(-1 2.68623e-12 0)
(-1 2.68499e-13 0)
(-1 7.37495e-13 0)
(-1 5.51161e-13 0)
(-1 5.01203e-13 0)
(-1 4.13454e-13 0)
(-1 3.33356e-13 0)
(-1 2.58539e-13 0)
(-1 1.99485e-13 0)
(-1 1.39947e-13 0)
(-1 6.40334e-14 0)
(-1 -2.33866e-14 0)
(-1 -2.71685e-07 0)
(-1 6.10292e-08 0)
(-1 -1.4415e-08 0)
(-1 3.24421e-09 0)
(-1 -7.42726e-10 0)
(-1 1.73193e-10 0)
(-1 -3.56407e-11 0)
(-1 1.1046e-11 0)
(-1 3.41894e-13 0)
(-1 2.55656e-12 0)
(-1 1.85288e-12 0)
(-1 1.754e-12 0)
(-1 1.49723e-12 0)
(-1 1.25154e-12 0)
(-1 1.00461e-12 0)
(-1 7.70783e-13 0)
(-1 5.86661e-13 0)
(-1 4.34557e-13 0)
(-1 1.8209e-13 0)
(-1 -6.91379e-14 0)
(-1 2.89831e-07 0)
(-1 -6.52087e-08 0)
(-1 1.54053e-08 0)
(-1 -3.47083e-09 0)
(-1 8.00725e-10 0)
(-1 -1.80166e-10 0)
(-1 4.47212e-11 0)
(-1 -5.42478e-12 0)
(-1 5.91832e-12 0)
(-1 3.10607e-12 0)
(-1 3.34196e-12 0)
(-1 2.85084e-12 0)
(-1 2.48494e-12 0)
(-1 2.06038e-12 0)
(-1 1.6545e-12 0)
(-1 1.27021e-12 0)
(-1 9.65098e-13 0)
(-1 7.06634e-13 0)
(-1 2.98944e-13 0)
(-1 -1.11667e-13 0)
(-1 -3.17291e-07 0)
(-1 7.15368e-08 0)
(-1 -1.69065e-08 0)
(-1 3.8144e-09 0)
(-1 -8.73555e-10 0)
(-1 2.07441e-10 0)
(-1 -3.89202e-11 0)
(-1 1.61136e-11 0)
(-1 3.13875e-12 0)
(-1 5.4928e-12 0)
(-1 4.3711e-12 0)
(-1 3.97743e-12 0)
(-1 3.39554e-12 0)
(-1 2.82115e-12 0)
(-1 2.26014e-12 0)
(-1 1.73255e-12 0)
(-1 1.31227e-12 0)
(-1 9.65915e-13 0)
(-1 4.06282e-13 0)
(-1 -1.51287e-13 0)
(-1 3.53596e-07 0)
(-1 -8.01878e-08 0)
(-1 1.89605e-08 0)
(-1 -4.29311e-09 0)
(-1 1.00042e-09 0)
(-1 -2.20791e-10 0)
(-1 5.92722e-11 0)
(-1 -4.16567e-12 0)
(-1 9.66949e-12 0)
(-1 5.75663e-12 0)
(-1 5.77244e-12 0)
(-1 4.91345e-12 0)
(-1 4.24027e-12 0)
(-1 3.50191e-12 0)
(-1 2.80385e-12 0)
(-1 2.14842e-12 0)
(-1 1.62765e-12 0)
(-1 1.19248e-12 0)
(-1 5.03195e-13 0)
(-1 -1.86328e-13 0)
(-1 -3.97298e-07 0)
(-1 9.0545e-08 0)
(-1 -2.14489e-08 0)
(-1 4.88187e-09 0)
(-1 -1.11933e-09 0)
(-1 2.7323e-10 0)
(-1 -4.76143e-11 0)
(-1 2.33006e-11 0)
(-1 5.50727e-12 0)
(-1 8.23228e-12 0)
(-1 6.49586e-12 0)
(-1 5.82436e-12 0)
(-1 4.94069e-12 0)
(-1 4.08828e-12 0)
(-1 3.2675e-12 0)
(-1 2.50146e-12 0)
(-1 1.89181e-12 0)
(-1 1.38827e-12 0)
(-1 5.84797e-13 0)
(-1 -2.16345e-13 0)
(-1 4.43393e-07 0)
(-1 -1.02235e-07 0)
(-1 2.43036e-08 0)
(-1 -5.51737e-09 0)
(-1 1.32562e-09 0)
(-1 -2.82829e-10 0)
(-1 8.19135e-11 0)
(-1 -4.69454e-12 0)
(-1 1.32648e-11 0)
(-1 7.66898e-12 0)
(-1 7.61435e-12 0)
(-1 6.41855e-12 0)
(-1 5.51962e-12 0)
(-1 4.54716e-12 0)
(-1 3.63647e-12 0)
(-1 2.7834e-12 0)
(-1 2.10561e-12 0)
(-1 1.5414e-12 0)
(-1 6.49653e-13 0)
(-1 -2.40382e-13 0)
(-1 -4.78079e-07 0)
(-1 1.12629e-07 0)
(-1 -2.65925e-08 0)
(-1 6.26875e-09 0)
(-1 -1.44302e-09 0)
(-1 3.59653e-10 0)
(-1 -6.51966e-11 0)
(-1 3.03522e-11 0)
(-1 6.08887e-12 0)
(-1 1.00188e-11 0)
(-1 7.72245e-12 0)
(-1 6.95985e-12 0)
(-1 5.89112e-12 0)
(-1 4.87754e-12 0)
(-1 3.8984e-12 0)
(-1 2.98512e-12 0)
(-1 2.25666e-12 0)
(-1 1.65278e-12 0)
(-1 6.96344e-13 0)
(-1 -2.58437e-13 0)
(-1 5.05155e-07 0)
(-1 -1.20075e-07 0)
(-1 2.84448e-08 0)
(-1 -6.71904e-09 0)
(-1 1.61241e-09 0)
(-1 -3.61408e-10 0)
(-1 1.02168e-10 0)
(-1 -9.24169e-12 0)
(-1 1.53051e-11 0)
(-1 8.08539e-12 0)
(-1 8.43248e-12 0)
(-1 7.07513e-12 0)
(-1 6.12678e-12 0)
(-1 5.05508e-12 0)
(-1 4.05083e-12 0)
(-1 3.10304e-12 0)
(-1 2.34762e-12 0)
(-1 1.71884e-12 0)
(-1 7.23908e-13 0)
(-1 -2.70261e-13 0)
(-1 -5.29707e-07 0)
(-1 1.26509e-07 0)
(-1 -2.99532e-08 0)
(-1 7.1598e-09 0)
(-1 -1.6845e-09 0)
(-1 4.16309e-10 0)
(-1 -8.41882e-11 0)
(-1 3.38307e-11 0)
(-1 4.6434e-12 0)
(-1 1.03851e-11 0)
(-1 7.82344e-12 0)
(-1 7.22255e-12 0)
(-1 6.13236e-12 0)
(-1 5.10561e-12 0)
(-1 4.09081e-12 0)
(-1 3.1383e-12 0)
(-1 2.37522e-12 0)
(-1 1.74053e-12 0)
(-1 7.34196e-13 0)
(-1 -2.76319e-13 0)
(-1 5.51465e-07 0)
(-1 -1.32095e-07 0)
(-1 3.131e-08 0)
(-1 -7.48498e-09 0)
(-1 1.79567e-09 0)
(-1 -4.1427e-10 0)
(-1 1.1277e-10 0)
(-1 -1.40088e-11 0)
(-1 1.5334e-11 0)
(-1 7.35215e-12 0)
(-1 8.2139e-12 0)
(-1 6.90125e-12 0)
(-1 6.0474e-12 0)
(-1 5.01029e-12 0)
(-1 4.0303e-12 0)
(-1 3.09306e-12 0)
(-1 2.34434e-12 0)
(-1 1.72186e-12 0)
(-1 7.26247e-13 0)
(-1 -2.7665e-13 0)
(-1 -5.71799e-07 0)
(-1 1.37223e-07 0)
(-1 -3.25124e-08 0)
(-1 7.81096e-09 0)
(-1 -1.8508e-09 0)
(-1 4.53914e-10 0)
(-1 -9.71396e-11 0)
(-1 3.48146e-11 0)
(-1 2.74992e-12 0)
(-1 9.69939e-12 0)
(-1 7.12875e-12 0)
(-1 6.74453e-12 0)
(-1 5.75096e-12 0)
(-1 4.81661e-12 0)
(-1 3.87061e-12 0)
(-1 2.97629e-12 0)
(-1 2.25875e-12 0)
(-1 1.66208e-12 0)
(-1 7.04769e-13 0)
(-1 -2.71408e-13 0)
(-1 5.89778e-07 0)
(-1 -1.41724e-07 0)
(-1 3.35952e-08 0)
(-1 -8.06555e-09 0)
(-1 1.93387e-09 0)
(-1 -4.51774e-10 0)
(-1 1.1968e-10 0)
(-1 -1.78766e-11 0)
(-1 1.45514e-11 0)
(-1 6.09166e-12 0)
(-1 7.32957e-12 0)
(-1 6.12545e-12 0)
(-1 5.41927e-12 0)
(-1 4.50112e-12 0)
(-1 3.63085e-12 0)
(-1 2.79063e-12 0)
(-1 2.12173e-12 0)
(-1 1.57039e-12 0)
(-1 6.66928e-13 0)
(-1 -2.60384e-13 0)
(-1 -6.06203e-07 0)
(-1 1.45812e-07 0)
(-1 -3.45541e-08 0)
(-1 8.32006e-09 0)
(-1 -1.977e-09 0)
(-1 4.82842e-10 0)
(-1 -1.06558e-10 0)
(-1 3.51648e-11 0)
(-1 8.42458e-13 0)
(-1 8.5425e-12 0)
(-1 5.96069e-12 0)
(-1 5.76018e-12 0)
(-1 4.90094e-12 0)
(-1 4.11729e-12 0)
(-1 3.31122e-12 0)
(-1 2.5496e-12 0)
(-1 1.94224e-12 0)
(-1 1.44109e-12 0)
(-1 6.18133e-13 0)
(-1 -2.43372e-13 0)
(-1 6.2017e-07 0)
(-1 -1.49233e-07 0)
(-1 3.53767e-08 0)
(-1 -8.50726e-09 0)
(-1 2.03998e-09 0)
(-1 -4.7913e-10 0)
(-1 1.2485e-10 0)
(-1 -2.09357e-11 0)
(-1 1.34836e-11 0)
(-1 4.57168e-12 0)
(-1 6.03519e-12 0)
(-1 4.92918e-12 0)
(-1 4.38308e-12 0)
(-1 3.63234e-12 0)
(-1 2.9311e-12 0)
(-1 2.2528e-12 0)
(-1 1.7189e-12 0)
(-1 1.28627e-12 0)
(-1 5.52436e-13 0)
(-1 -2.20006e-13 0)
(-1 -6.32311e-07 0)
(-1 1.52167e-07 0)
(-1 -3.60566e-08 0)
(-1 8.68754e-09 0)
(-1 -2.06445e-09 0)
(-1 5.03449e-10 0)
(-1 -1.12735e-10 0)
(-1 3.50055e-11 0)
(-1 -9.90061e-13 0)
(-1 7.05504e-12 0)
(-1 4.45223e-12 0)
(-1 4.39514e-12 0)
(-1 3.69247e-12 0)
(-1 3.09881e-12 0)
(-1 2.48549e-12 0)
(-1 1.91211e-12 0)
(-1 1.4615e-12 0)
(-1 1.09482e-12 0)
(-1 4.74737e-13 0)
(-1 -1.90515e-13 0)
(-1 6.42045e-07 0)
(-1 -1.54591e-07 0)
(-1 3.66546e-08 0)
(-1 -8.81563e-09 0)
(-1 2.11703e-09 0)
(-1 -4.97566e-10 0)
(-1 1.28346e-10 0)
(-1 -2.35704e-11 0)
(-1 1.20117e-11 0)
(-1 2.71927e-12 0)
(-1 4.34167e-12 0)
(-1 3.35502e-12 0)
(-1 2.9993e-12 0)
(-1 2.46421e-12 0)
(-1 1.98524e-12 0)
(-1 1.52412e-12 0)
(-1 1.17055e-12 0)
(-1 8.89458e-13 0)
(-1 3.85923e-13 0)
(-1 -1.57818e-13 0)
(-1 -6.49887e-07 0)
(-1 1.56456e-07 0)
(-1 -3.70586e-08 0)
(-1 8.94404e-09 0)
(-1 -2.12319e-09 0)
(-1 5.18256e-10 0)
(-1 -1.17825e-10 0)
(-1 3.40928e-11 0)
(-1 -3.27185e-12 0)
(-1 5.10458e-12 0)
(-1 2.53863e-12 0)
(-1 2.68247e-12 0)
(-1 2.18653e-12 0)
(-1 1.83783e-12 0)
(-1 1.46876e-12 0)
(-1 1.1346e-12 0)
(-1 8.75488e-13 0)
(-1 6.64697e-13 0)
(-1 2.93843e-13 0)
(-1 -1.2298e-13 0)
(-1 6.54974e-07 0)
(-1 -1.575e-07 0)
(-1 3.73408e-08 0)
(-1 -8.95626e-09 0)
(-1 2.14872e-09 0)
(-1 -5.05076e-10 0)
(-1 1.26892e-10 0)
(-1 -2.62159e-11 0)
(-1 9.5262e-12 0)
(-1 4.26504e-13 0)
(-1 2.22705e-12 0)
(-1 1.47614e-12 0)
(-1 1.3637e-12 0)
(-1 1.0991e-12 0)
(-1 8.85358e-13 0)
(-1 6.77209e-13 0)
(-1 5.24903e-13 0)
(-1 4.24433e-13 0)
(-1 2.05534e-13 0)
(-1 -8.22268e-14 0)
(-1 -6.59451e-07 0)
(-1 1.59802e-07 0)
(-1 -3.78733e-08 0)
(-1 9.18958e-09 0)
(-1 -2.19724e-09 0)
(-1 5.31869e-10 0)
(-1 -1.2717e-10 0)
(-1 3.20109e-11 0)
(-1 -6.72506e-12 0)
(-1 2.5135e-12 0)
(-1 1.23115e-13 0)
(-1 5.98689e-13 0)
(-1 3.85951e-13 0)
(-1 3.45386e-13 0)
(-1 2.6733e-13 0)
(-1 2.05033e-13 0)
(-1 1.64195e-13 0)
(-1 1.46947e-13 0)
(-1 8.14581e-14 0)
(-1 -2.92516e-14 0)
)
;

boundaryField
{
    movingWall
    {
        type            zeroGradient;
    }
    fixedWalls
    {
        type            zeroGradient;
    }
    frontAndBack
    {
        type            empty;
    }
}


// ************************************************************************* //
