/*--------------------------------*- C++ -*----------------------------------*\
| =========                 |                                                 |
| \\      /  F ield         | OpenFOAM: The Open Source CFD Toolbox           |
|  \\    /   O peration     | Version:  2506                                  |
|   \\  /    A nd           | Website:  www.openfoam.com                      |
|    \\/     M anipulation  |                                                 |
\*---------------------------------------------------------------------------*/
FoamFile
{
    version     2.0;
    format      ascii;
    arch        "LSB;label=32;scalar=64";
    class       volScalarField;
    location    "3.375";
    object      zeroGradient(epsilon);
}
// * * * * * * * * * * * * * * * * * * * * * * * * * * * * * * * * * * * * * //

dimensions      [0 2 -3 0 0 0 0];

internalField   nonuniform List<scalar> 
400
(
4.81602e-05
4.81587e-05
4.81573e-05
4.81561e-05
4.81549e-05
4.81539e-05
4.81531e-05
4.81522e-05
4.81516e-05
4.81508e-05
4.81504e-05
4.81499e-05
4.81496e-05
4.81493e-05
4.8149e-05
4.81488e-05
4.81487e-05
4.81486e-05
4.81485e-05
4.81485e-05
8.09647e-05
7.73496e-05
7.76097e-05
7.77189e-05
7.79394e-05
7.80583e-05
7.82792e-05
7.84077e-05
7.8629e-05
7.87671e-05
7.89892e-05
7.91364e-05
7.936e-05
7.95157e-05
7.97418e-05
7.9905e-05
8.01348e-05
8.03046e-05
8.0422e-05
8.06254e-05
0.000132911
0.000125636
0.000126147
0.000126363
0.000126798
0.000127034
0.00012747
0.000127725
0.000128162
0.000128438
0.000128876
0.000129171
0.000129612
0.000129925
0.000130371
0.000130699
0.000131153
0.000131494
0.000131727
0.000132132
0.000179391
0.000168265
0.000169025
0.000169347
0.000169998
0.000170352
0.000171005
0.000171391
0.000172047
0.000172465
0.000173125
0.000173573
0.000174239
0.000174717
0.000175392
0.000175895
0.000176584
0.000177109
0.000177463
0.000178082
0.000210901
0.000196938
0.000197875
0.000198273
0.000199077
0.000199517
0.000200325
0.000200806
0.000201619
0.000202141
0.00020296
0.000203522
0.000204351
0.000204949
0.000205791
0.000206423
0.000207282
0.000207944
0.000208386
0.000209164
0.000229559
0.000213851
0.000214894
0.000215337
0.000216235
0.000216726
0.000217629
0.000218167
0.000219076
0.000219661
0.000220577
0.000221208
0.000222135
0.000222808
0.000223751
0.000224462
0.000225426
0.000226172
0.000226668
0.000227543
0.000240364
0.000223628
0.000224733
0.000225203
0.000226154
0.000226675
0.000227633
0.000228205
0.000229169
0.000229792
0.000230765
0.000231436
0.000232421
0.000233137
0.00023414
0.000234898
0.000235923
0.000236718
0.000237246
0.000238177
0.00024707
0.000229695
0.000230836
0.000231323
0.000232308
0.000232848
0.00023384
0.000234433
0.000235432
0.000236077
0.000237085
0.000237782
0.000238803
0.000239547
0.000240586
0.000241373
0.000242436
0.000243263
0.00024381
0.000244777
0.000251862
0.000234028
0.000235196
0.000235695
0.000236704
0.000237258
0.000238274
0.000238881
0.000239905
0.000240567
0.0002416
0.000242314
0.000243361
0.000244125
0.00024519
0.000245998
0.000247088
0.000247937
0.000248498
0.000249491
0.000255876
0.000237658
0.00023885
0.000239358
0.000240387
0.000240951
0.000241988
0.000242608
0.000243652
0.000244328
0.000245382
0.000246112
0.00024718
0.00024796
0.000249048
0.000249873
0.000250986
0.000251853
0.000252426
0.00025344
0.000259714
0.000241128
0.000242342
0.00024286
0.000243908
0.000244483
0.000245539
0.000246171
0.000247235
0.000247924
0.000248999
0.000249742
0.000250831
0.000251626
0.000252736
0.000253577
0.000254712
0.000255597
0.000256182
0.000257216
0.000263722
0.000244751
0.000245988
0.000246515
0.000247583
0.000248169
0.000249246
0.00024989
0.000250975
0.000251678
0.000252773
0.000253532
0.000254643
0.000255454
0.000256585
0.000257445
0.000258603
0.000259506
0.000260102
0.000261158
0.000268128
0.000248732
0.000249993
0.000250531
0.000251622
0.00025222
0.000253319
0.000253977
0.000255085
0.000255803
0.000256922
0.000257697
0.000258832
0.000259661
0.000260817
0.000261695
0.000262879
0.000263802
0.000264412
0.000265491
0.000273122
0.000253241
0.00025453
0.000255081
0.000256197
0.000256809
0.000257934
0.000258607
0.000259741
0.000260476
0.000261622
0.000262416
0.000263578
0.000264427
0.000265611
0.000266511
0.000267723
0.000268671
0.000269295
0.000270401
0.000278902
0.000258457
0.00025978
0.000260344
0.000261489
0.000262118
0.000263272
0.000263964
0.000265128
0.000265883
0.00026706
0.000267876
0.000269069
0.000269943
0.000271159
0.000272085
0.00027333
0.000274305
0.000274946
0.000276084
0.000285727
0.00026461
0.000265973
0.000266554
0.000267734
0.000268382
0.000269571
0.000270284
0.000271484
0.000272263
0.000273476
0.000274319
0.00027555
0.000276451
0.000277706
0.000278662
0.000279948
0.000280954
0.000281617
0.000282791
0.000293899
0.000271973
0.000273383
0.000273984
0.000275205
0.000275877
0.000277108
0.000277848
0.000279091
0.000279898
0.000281156
0.000282029
0.000283305
0.000284241
0.000285542
0.000286535
0.000287868
0.000288914
0.000289601
0.000290821
0.000303409
0.000280552
0.000282013
0.000282638
0.000283906
0.000284603
0.000285883
0.000286653
0.000287945
0.000288786
0.000290094
0.000291004
0.000292333
0.000293308
0.000294664
0.000295699
0.000297088
0.000298179
0.000298896
0.000300168
0.000312794
0.000289661
0.000291097
0.000291713
0.000292968
0.000293667
0.000294936
0.000295718
0.000297002
0.000297866
0.00029917
0.000300114
0.000301444
0.000302463
0.000303828
0.000304917
0.000306325
0.000307479
0.00030821
0.000309531
0.000315849
0.000315834
0.000315823
0.000315814
0.000315809
0.000315799
0.000315797
0.000315789
0.000315789
0.000315781
0.000315782
0.000315776
0.000315777
0.000315774
0.000315774
0.000315773
0.000315773
0.000315773
0.000315773
0.000315773
)
;

boundaryField
{
    movingWall
    {
        type            zeroGradient;
    }
    fixedWalls
    {
        type            zeroGradient;
    }
    frontAndBack
    {
        type            empty;
    }
}


// ************************************************************************* //
