/*--------------------------------*- C++ -*----------------------------------*\
| =========                 |                                                 |
| \\      /  F ield         | OpenFOAM: The Open Source CFD Toolbox           |
|  \\    /   O peration     | Version:  2506                                  |
|   \\  /    A nd           | Website:  www.openfoam.com                      |
|    \\/     M anipulation  |                                                 |
\*---------------------------------------------------------------------------*/
FoamFile
{
    version     2.0;
    format      ascii;
    arch        "LSB;label=32;scalar=64";
    class       volVectorField;
    location    "4.625";
    object      diffU;
}
// * * * * * * * * * * * * * * * * * * * * * * * * * * * * * * * * * * * * * //

dimensions      [0 1 -1 0 0 0 0];

internalField   nonuniform List<vector> 
400
(
(0 0 0)
(1.95779e-11 -1.12764e-08 0)
(7.5997e-12 -8.59876e-09 0)
(1.2611e-11 -9.23495e-09 0)
(1.05258e-11 -9.08393e-09 0)
(1.11094e-11 -9.11987e-09 0)
(1.08551e-11 -9.11134e-09 0)
(1.09007e-11 -9.11338e-09 0)
(1.08664e-11 -9.1129e-09 0)
(1.08643e-11 -9.11301e-09 0)
(1.08565e-11 -9.11299e-09 0)
(1.0853e-11 -9.113e-09 0)
(1.08502e-11 -9.11299e-09 0)
(1.08482e-11 -9.113e-09 0)
(1.08468e-11 -9.113e-09 0)
(1.08454e-11 -9.113e-09 0)
(1.08449e-11 -9.113e-09 0)
(1.08441e-11 -9.113e-09 0)
(1.08439e-11 -9.113e-09 0)
(1.08438e-11 -9.113e-09 0)
(3.00329e-11 -1.82275e-08 0)
(6.55231e-12 -6.94673e-09 0)
(1.22978e-11 -9.62632e-09 0)
(1.05906e-11 -8.9908e-09 0)
(1.10034e-11 -9.14182e-09 0)
(1.08846e-11 -9.10607e-09 0)
(1.0893e-11 -9.11459e-09 0)
(1.08749e-11 -9.11259e-09 0)
(1.08662e-11 -9.11307e-09 0)
(1.08594e-11 -9.11296e-09 0)
(1.08547e-11 -9.11299e-09 0)
(1.08512e-11 -9.11299e-09 0)
(1.0849e-11 -9.11299e-09 0)
(1.0847e-11 -9.11299e-09 0)
(1.08458e-11 -9.11299e-09 0)
(1.08451e-11 -9.11299e-09 0)
(1.08442e-11 -9.113e-09 0)
(1.08441e-11 -9.113e-09 0)
(1.0844e-11 -9.113e-09 0)
(1.08438e-11 -9.113e-09 0)
(-4.30871e-11 -1.49279e-11 0)
(2.16792e-11 -1.12734e-08 0)
(6.51568e-12 -8.6e-09 0)
(1.17573e-11 -9.23457e-09 0)
(1.05727e-11 -9.08397e-09 0)
(1.09454e-11 -9.11979e-09 0)
(1.08453e-11 -9.11132e-09 0)
(1.0869e-11 -9.11335e-09 0)
(1.08571e-11 -9.11288e-09 0)
(1.08554e-11 -9.113e-09 0)
(1.0852e-11 -9.11298e-09 0)
(1.08501e-11 -9.11299e-09 0)
(1.08481e-11 -9.11299e-09 0)
(1.08468e-11 -9.11299e-09 0)
(1.08454e-11 -9.11299e-09 0)
(1.08449e-11 -9.11299e-09 0)
(1.08441e-11 -9.113e-09 0)
(1.0844e-11 -9.113e-09 0)
(1.08438e-11 -9.113e-09 0)
(1.08438e-11 -9.113e-09 0)
(7.19301e-11 -1.81919e-08 0)
(-1.50058e-12 -6.95828e-09 0)
(1.54815e-11 -9.62413e-09 0)
(9.75042e-12 -8.99159e-09 0)
(1.11205e-11 -9.1417e-09 0)
(1.07536e-11 -9.1061e-09 0)
(1.08688e-11 -9.11457e-09 0)
(1.08441e-11 -9.11258e-09 0)
(1.08519e-11 -9.11306e-09 0)
(1.08493e-11 -9.11296e-09 0)
(1.08487e-11 -9.11299e-09 0)
(1.08473e-11 -9.11299e-09 0)
(1.08465e-11 -9.11299e-09 0)
(1.08459e-11 -9.11299e-09 0)
(1.08454e-11 -9.11299e-09 0)
(1.08447e-11 -9.11299e-09 0)
(1.08443e-11 -9.11299e-09 0)
(1.08439e-11 -9.113e-09 0)
(1.0844e-11 -9.113e-09 0)
(1.0844e-11 -9.113e-09 0)
(-5.48337e-11 -6.04428e-11 0)
(2.38283e-11 -1.12606e-08 0)
(5.74674e-12 -8.6034e-09 0)
(1.19087e-11 -9.23381e-09 0)
(1.04963e-11 -9.08426e-09 0)
(1.09202e-11 -9.11975e-09 0)
(1.08129e-11 -9.11134e-09 0)
(1.08474e-11 -9.11335e-09 0)
(1.08418e-11 -9.11288e-09 0)
(1.08452e-11 -9.113e-09 0)
(1.08448e-11 -9.11298e-09 0)
(1.08451e-11 -9.11299e-09 0)
(1.08445e-11 -9.11299e-09 0)
(1.08444e-11 -9.11299e-09 0)
(1.08442e-11 -9.11299e-09 0)
(1.08439e-11 -9.11299e-09 0)
(1.08441e-11 -9.11299e-09 0)
(1.08441e-11 -9.113e-09 0)
(1.0844e-11 -9.113e-09 0)
(1.08435e-11 -9.113e-09 0)
(7.15344e-11 -1.81401e-08 0)
(-1.20082e-12 -6.97177e-09 0)
(1.53636e-11 -9.62091e-09 0)
(9.77951e-12 -8.99246e-09 0)
(1.10941e-11 -9.14153e-09 0)
(1.07394e-11 -9.10618e-09 0)
(1.0851e-11 -9.11457e-09 0)
(1.08302e-11 -9.11259e-09 0)
(1.08411e-11 -9.11307e-09 0)
(1.08411e-11 -9.11296e-09 0)
(1.08429e-11 -9.11299e-09 0)
(1.08433e-11 -9.11299e-09 0)
(1.08438e-11 -9.11299e-09 0)
(1.08438e-11 -9.11299e-09 0)
(1.08438e-11 -9.11299e-09 0)
(1.08439e-11 -9.11299e-09 0)
(1.0844e-11 -9.11299e-09 0)
(1.08439e-11 -9.113e-09 0)
(1.08438e-11 -9.113e-09 0)
(1.0844e-11 -9.113e-09 0)
(-4.51028e-11 -1.12873e-10 0)
(2.17873e-11 -1.12476e-08 0)
(6.61582e-12 -8.60659e-09 0)
(1.1722e-11 -9.23307e-09 0)
(1.05507e-11 -9.08448e-09 0)
(1.08926e-11 -9.11973e-09 0)
(1.08067e-11 -9.11137e-09 0)
(1.08362e-11 -9.11336e-09 0)
(1.08338e-11 -9.11289e-09 0)
(1.08384e-11 -9.113e-09 0)
(1.084e-11 -9.11298e-09 0)
(1.08413e-11 -9.11299e-09 0)
(1.08422e-11 -9.11299e-09 0)
(1.08424e-11 -9.11299e-09 0)
(1.08433e-11 -9.11299e-09 0)
(1.08431e-11 -9.11299e-09 0)
(1.08435e-11 -9.11299e-09 0)
(1.08435e-11 -9.113e-09 0)
(1.08438e-11 -9.113e-09 0)
(1.08438e-11 -9.113e-09 0)
(5.87635e-11 -1.80887e-08 0)
(1.44307e-12 -6.98421e-09 0)
(1.43178e-11 -9.61796e-09 0)
(1.00226e-11 -8.9932e-09 0)
(1.10222e-11 -9.14138e-09 0)
(1.07538e-11 -9.10624e-09 0)
(1.0838e-11 -9.11458e-09 0)
(1.08238e-11 -9.1126e-09 0)
(1.08333e-11 -9.11307e-09 0)
(1.08349e-11 -9.11296e-09 0)
(1.08378e-11 -9.11299e-09 0)
(1.08396e-11 -9.11299e-09 0)
(1.08409e-11 -9.11299e-09 0)
(1.08418e-11 -9.11299e-09 0)
(1.08424e-11 -9.11299e-09 0)
(1.08427e-11 -9.11299e-09 0)
(1.08435e-11 -9.11299e-09 0)
(1.08438e-11 -9.113e-09 0)
(1.08438e-11 -9.113e-09 0)
(1.08439e-11 -9.113e-09 0)
(-3.11535e-11 -1.61066e-10 0)
(1.89826e-11 -1.12362e-08 0)
(7.7518e-12 -8.60933e-09 0)
(1.14763e-11 -9.23244e-09 0)
(1.06259e-11 -9.08465e-09 0)
(1.08697e-11 -9.1197e-09 0)
(1.08094e-11 -9.11139e-09 0)
(1.08311e-11 -9.11336e-09 0)
(1.08302e-11 -9.1129e-09 0)
(1.08351e-11 -9.11301e-09 0)
(1.08376e-11 -9.11298e-09 0)
(1.08391e-11 -9.11299e-09 0)
(1.08404e-11 -9.11299e-09 0)
(1.08415e-11 -9.11299e-09 0)
(1.08422e-11 -9.11299e-09 0)
(1.08431e-11 -9.11299e-09 0)
(1.08431e-11 -9.113e-09 0)
(1.08433e-11 -9.113e-09 0)
(1.08438e-11 -9.113e-09 0)
(1.08439e-11 -9.113e-09 0)
(4.5723e-11 -1.80438e-08 0)
(4.05809e-12 -6.99477e-09 0)
(1.32933e-11 -9.61547e-09 0)
(1.02591e-11 -8.9938e-09 0)
(1.0959e-11 -9.14126e-09 0)
(1.07743e-11 -9.10628e-09 0)
(1.08324e-11 -9.11458e-09 0)
(1.0824e-11 -9.11261e-09 0)
(1.08318e-11 -9.11308e-09 0)
(1.0834e-11 -9.11297e-09 0)
(1.08369e-11 -9.113e-09 0)
(1.08384e-11 -9.11299e-09 0)
(1.08407e-11 -9.11299e-09 0)
(1.08415e-11 -9.11299e-09 0)
(1.08427e-11 -9.11299e-09 0)
(1.08429e-11 -9.11299e-09 0)
(1.08431e-11 -9.113e-09 0)
(1.08438e-11 -9.113e-09 0)
(1.08438e-11 -9.113e-09 0)
(1.08438e-11 -9.113e-09 0)
(-1.9637e-11 -2.01993e-10 0)
(1.67101e-11 -1.12266e-08 0)
(8.64842e-12 -8.6116e-09 0)
(1.12795e-11 -9.23193e-09 0)
(1.06837e-11 -9.08478e-09 0)
(1.08535e-11 -9.11969e-09 0)
(1.08131e-11 -9.11141e-09 0)
(1.08291e-11 -9.11337e-09 0)
(1.083e-11 -9.1129e-09 0)
(1.0834e-11 -9.11302e-09 0)
(1.08364e-11 -9.11299e-09 0)
(1.08387e-11 -9.113e-09 0)
(1.08402e-11 -9.11299e-09 0)
(1.08411e-11 -9.11299e-09 0)
(1.0842e-11 -9.113e-09 0)
(1.08427e-11 -9.113e-09 0)
(1.08431e-11 -9.113e-09 0)
(1.08433e-11 -9.113e-09 0)
(1.08435e-11 -9.113e-09 0)
(1.08438e-11 -9.113e-09 0)
(3.62217e-11 -1.80062e-08 0)
(5.91638e-12 -7.00349e-09 0)
(1.25699e-11 -9.61342e-09 0)
(1.04203e-11 -8.99429e-09 0)
(1.09145e-11 -9.14116e-09 0)
(1.07876e-11 -9.10632e-09 0)
(1.08293e-11 -9.11458e-09 0)
(1.08249e-11 -9.11262e-09 0)
(1.08311e-11 -9.11309e-09 0)
(1.08336e-11 -9.11298e-09 0)
(1.08362e-11 -9.113e-09 0)
(1.08382e-11 -9.11299e-09 0)
(1.08393e-11 -9.113e-09 0)
(1.08409e-11 -9.113e-09 0)
(1.08418e-11 -9.113e-09 0)
(1.08427e-11 -9.113e-09 0)
(1.08429e-11 -9.113e-09 0)
(1.08435e-11 -9.113e-09 0)
(1.08438e-11 -9.113e-09 0)
(1.08438e-11 -9.113e-09 0)
(-1.21851e-11 -2.35989e-10 0)
(1.52689e-11 -1.12187e-08 0)
(9.20197e-12 -8.61347e-09 0)
(1.11557e-11 -9.2315e-09 0)
(1.07176e-11 -9.0849e-09 0)
(1.08449e-11 -9.11967e-09 0)
(1.08176e-11 -9.11142e-09 0)
(1.083e-11 -9.11338e-09 0)
(1.08316e-11 -9.11291e-09 0)
(1.08353e-11 -9.11302e-09 0)
(1.08373e-11 -9.11299e-09 0)
(1.08393e-11 -9.113e-09 0)
(1.08404e-11 -9.113e-09 0)
(1.08411e-11 -9.113e-09 0)
(1.0842e-11 -9.113e-09 0)
(1.08427e-11 -9.113e-09 0)
(1.08433e-11 -9.113e-09 0)
(1.08433e-11 -9.113e-09 0)
(1.08435e-11 -9.113e-09 0)
(1.08438e-11 -9.113e-09 0)
(3.04075e-11 -1.79748e-08 0)
(7.02371e-12 -7.01081e-09 0)
(1.21387e-11 -9.61171e-09 0)
(1.05129e-11 -8.99471e-09 0)
(1.08895e-11 -9.14108e-09 0)
(1.0798e-11 -9.10635e-09 0)
(1.08309e-11 -9.11459e-09 0)
(1.08293e-11 -9.11263e-09 0)
(1.08347e-11 -9.11309e-09 0)
(1.08369e-11 -9.11298e-09 0)
(1.08387e-11 -9.11301e-09 0)
(1.08402e-11 -9.113e-09 0)
(1.08413e-11 -9.113e-09 0)
(1.0842e-11 -9.113e-09 0)
(1.08427e-11 -9.113e-09 0)
(1.08429e-11 -9.113e-09 0)
(1.08431e-11 -9.113e-09 0)
(1.08438e-11 -9.113e-09 0)
(1.08438e-11 -9.113e-09 0)
(1.08439e-11 -9.113e-09 0)
(-8.00826e-12 -2.64721e-10 0)
(1.44689e-11 -1.1212e-08 0)
(9.4933e-12 -8.61508e-09 0)
(1.10888e-11 -9.23115e-09 0)
(1.07376e-11 -9.085e-09 0)
(1.08449e-11 -9.11967e-09 0)
(1.08242e-11 -9.11144e-09 0)
(1.08356e-11 -9.11338e-09 0)
(1.08369e-11 -9.11292e-09 0)
(1.08391e-11 -9.11303e-09 0)
(1.08407e-11 -9.113e-09 0)
(1.08418e-11 -9.113e-09 0)
(1.08422e-11 -9.113e-09 0)
(1.08431e-11 -9.113e-09 0)
(1.08431e-11 -9.113e-09 0)
(1.08438e-11 -9.113e-09 0)
(1.0844e-11 -9.113e-09 0)
(1.08439e-11 -9.113e-09 0)
(1.08439e-11 -9.113e-09 0)
(1.08438e-11 -9.113e-09 0)
(2.66834e-11 -1.79476e-08 0)
(7.72138e-12 -7.01721e-09 0)
(1.18554e-11 -9.61022e-09 0)
(1.05715e-11 -8.99509e-09 0)
(1.08771e-11 -9.14101e-09 0)
(1.08107e-11 -9.10639e-09 0)
(1.08376e-11 -9.11459e-09 0)
(1.08367e-11 -9.11264e-09 0)
(1.08404e-11 -9.1131e-09 0)
(1.08413e-11 -9.11298e-09 0)
(1.08427e-11 -9.11301e-09 0)
(1.08427e-11 -9.113e-09 0)
(1.08433e-11 -9.113e-09 0)
(1.08431e-11 -9.113e-09 0)
(1.08431e-11 -9.113e-09 0)
(1.08433e-11 -9.113e-09 0)
(1.08435e-11 -9.113e-09 0)
(1.08438e-11 -9.113e-09 0)
(1.0844e-11 -9.113e-09 0)
(1.08438e-11 -9.113e-09 0)
(-5.72387e-12 -2.89991e-10 0)
(1.4008e-11 -1.12061e-08 0)
(9.64229e-12 -8.61655e-09 0)
(1.10568e-11 -9.23084e-09 0)
(1.07574e-11 -9.08511e-09 0)
(1.08559e-11 -9.11966e-09 0)
(1.08376e-11 -9.11145e-09 0)
(1.08457e-11 -9.11339e-09 0)
(1.08447e-11 -9.11292e-09 0)
(1.08449e-11 -9.11303e-09 0)
(1.08443e-11 -9.113e-09 0)
(1.08445e-11 -9.113e-09 0)
(1.08444e-11 -9.113e-09 0)
(1.08444e-11 -9.113e-09 0)
(1.0844e-11 -9.113e-09 0)
(1.0844e-11 -9.113e-09 0)
(1.08438e-11 -9.113e-09 0)
(1.08433e-11 -9.113e-09 0)
(1.08438e-11 -9.113e-09 0)
(1.08439e-11 -9.113e-09 0)
(2.26039e-11 -1.79229e-08 0)
(8.51408e-12 -7.02308e-09 0)
(1.1536e-11 -9.60899e-09 0)
(1.06628e-11 -8.99547e-09 0)
(1.08822e-11 -9.14098e-09 0)
(1.08448e-11 -9.10642e-09 0)
(1.08568e-11 -9.1146e-09 0)
(1.08531e-11 -9.11264e-09 0)
(1.08513e-11 -9.1131e-09 0)
(1.08491e-11 -9.11298e-09 0)
(1.08477e-11 -9.11301e-09 0)
(1.08463e-11 -9.113e-09 0)
(1.08454e-11 -9.113e-09 0)
(1.08452e-11 -9.113e-09 0)
(1.08448e-11 -9.113e-09 0)
(1.08442e-11 -9.113e-09 0)
(1.0844e-11 -9.113e-09 0)
(1.0844e-11 -9.113e-09 0)
(1.08435e-11 -9.113e-09 0)
(1.08439e-11 -9.113e-09 0)
(-5.36726e-12 -3.12222e-10 0)
(1.37651e-11 -1.12011e-08 0)
(9.66183e-12 -8.61826e-09 0)
(1.11642e-11 -9.23051e-09 0)
(1.08074e-11 -9.08526e-09 0)
(1.09085e-11 -9.11963e-09 0)
(1.08626e-11 -9.11146e-09 0)
(1.08644e-11 -9.11338e-09 0)
(1.08553e-11 -9.11292e-09 0)
(1.0852e-11 -9.11302e-09 0)
(1.08489e-11 -9.113e-09 0)
(1.08471e-11 -9.113e-09 0)
(1.08457e-11 -9.113e-09 0)
(1.08445e-11 -9.113e-09 0)
(1.08442e-11 -9.113e-09 0)
(1.08442e-11 -9.113e-09 0)
(1.08441e-11 -9.113e-09 0)
(1.08439e-11 -9.113e-09 0)
(1.08439e-11 -9.113e-09 0)
(1.08439e-11 -9.113e-09 0)
(5.29443e-12 -1.79021e-08 0)
(1.81045e-11 -7.02861e-09 0)
(7.83951e-12 -9.60798e-09 0)
(1.23646e-11 -8.99564e-09 0)
(1.04903e-11 -9.14091e-09 0)
(1.10578e-11 -9.10639e-09 0)
(1.08318e-11 -9.11458e-09 0)
(1.08826e-11 -9.11263e-09 0)
(1.08543e-11 -9.11309e-09 0)
(1.08551e-11 -9.11298e-09 0)
(1.08502e-11 -9.113e-09 0)
(1.08485e-11 -9.113e-09 0)
(1.08467e-11 -9.113e-09 0)
(1.08459e-11 -9.113e-09 0)
(1.08452e-11 -9.113e-09 0)
(1.08445e-11 -9.113e-09 0)
(1.08442e-11 -9.113e-09 0)
(1.0844e-11 -9.113e-09 0)
(1.08438e-11 -9.113e-09 0)
(1.08438e-11 -9.113e-09 0)
)
;

boundaryField
{
    movingWall
    {
        type            calculated;
        value           uniform (1.08438e-11 -9.113e-09 0);
    }
    fixedWalls
    {
        type            calculated;
        value           uniform (1.08438e-11 -9.113e-09 0);
    }
    frontAndBack
    {
        type            empty;
    }
}


// ************************************************************************* //
