/*--------------------------------*- C++ -*----------------------------------*\
| =========                 |                                                 |
| \\      /  F ield         | OpenFOAM: The Open Source CFD Toolbox           |
|  \\    /   O peration     | Version:  2506                                  |
|   \\  /    A nd           | Website:  www.openfoam.com                      |
|    \\/     M anipulation  |                                                 |
\*---------------------------------------------------------------------------*/
FoamFile
{
    version     2.0;
    format      ascii;
    arch        "LSB;label=32;scalar=64";
    class       volScalarField;
    location    "4.625";
    object      divU;
}
// * * * * * * * * * * * * * * * * * * * * * * * * * * * * * * * * * * * * * //

dimensions      [0 0 -1 0 0 0 0];

internalField   nonuniform List<scalar> 
400
(
-3.56838e-10
1.04998e-09
-6.06093e-10
3.16113e-10
-1.25729e-10
3.87425e-11
-1.45549e-11
3.86587e-12
-1.454e-12
3.32751e-13
-1.7874e-13
-3.73022e-15
-2.47731e-15
-1.67694e-14
-1.79334e-14
3.10148e-14
2.41723e-15
-2.23601e-14
-1.30417e-14
0
-3.00866e-12
-1.48091e-09
2.80426e-10
-9.06724e-11
2.51971e-11
-3.0892e-12
1.42103e-12
-1.65204e-13
-2.17912e-14
-7.03939e-14
-2.46741e-14
2.45942e-14
-2.04766e-14
-1.36339e-14
2.69551e-14
1.38116e-14
-3.75676e-14
5.87836e-14
-9.09802e-15
0
-7.53819e-10
3.80605e-09
-7.73229e-10
3.27219e-10
-6.93713e-11
2.3861e-11
-6.049e-12
2.07517e-12
-5.06843e-13
1.89956e-13
-1.69617e-14
4.32364e-15
-5.56259e-15
-2.5686e-14
-1.97776e-14
-3.14408e-14
-1.07062e-14
2.41025e-14
-1.21256e-14
0
3.22713e-10
-4.36505e-09
7.84774e-10
-3.60445e-10
7.17765e-11
-2.15909e-11
6.65101e-12
-1.39163e-12
5.79892e-13
-6.23069e-14
1.96838e-14
-3.96017e-15
2.2336e-14
2.57505e-14
1.7967e-14
-2.15294e-14
-6.002e-14
3.38989e-14
1.75043e-14
-2.71051e-14
-9.11814e-11
4.7082e-09
-8.69787e-10
3.87415e-10
-8.21936e-11
2.41626e-11
-7.34877e-12
1.88029e-12
-4.69741e-13
1.65204e-13
-4.15378e-14
2.52747e-14
-8.19913e-15
-1.08476e-14
-3.28449e-14
2.82263e-14
1.34361e-14
3.55221e-14
-3.93905e-14
0
-3.78414e-10
-4.31321e-09
7.78517e-10
-3.53224e-10
7.3952e-11
-2.17869e-11
6.5333e-12
-1.62446e-12
5.05986e-13
-1.02238e-13
5.13471e-14
-9.59472e-15
9.65194e-15
-2.79954e-14
4.99765e-15
-9.36668e-15
4.69174e-14
-3.49839e-14
1.24816e-14
-2.71051e-14
6.39761e-10
3.92854e-09
-7.1156e-10
3.19833e-10
-6.79708e-11
1.97016e-11
-5.9891e-12
1.45141e-12
-3.61047e-13
1.443e-13
-4.86936e-14
-5.16751e-15
8.95513e-15
-5.83723e-15
5.83495e-14
-4.90426e-14
-1.33517e-14
2.19327e-14
5.14318e-15
0
-9.67325e-10
-3.30078e-09
5.84049e-10
-2.66668e-10
5.60678e-11
-1.62789e-11
4.93272e-12
-1.25812e-12
3.68101e-13
-1.49678e-13
7.53915e-14
2.23943e-14
1.32417e-14
3.60055e-14
-7.81635e-14
5.91709e-14
5.59178e-14
-4.78114e-14
1.9922e-14
-2.71051e-14
1.10984e-09
2.83467e-09
-5.01515e-10
2.27238e-10
-4.81985e-11
1.38393e-11
-4.21274e-12
9.65341e-13
-3.0527e-13
1.48899e-13
3.06642e-14
-6.82213e-14
-2.7837e-14
4.01541e-14
1.05985e-14
-2.95877e-15
2.57366e-15
-9.62617e-15
1.8239e-14
0
-1.2834e-09
-2.28963e-09
3.93568e-10
-1.81723e-10
3.80246e-11
-1.08782e-11
3.2519e-12
-7.69083e-13
1.97322e-13
-7.71911e-14
4.02904e-14
7.12156e-15
2.03855e-14
5.36495e-15
3.88271e-14
-4.12616e-14
1.01472e-14
3.75241e-14
-3.79026e-14
-2.71051e-14
1.29508e-09
1.95575e-09
-3.37889e-10
1.54284e-10
-3.2525e-11
9.22623e-12
-2.83535e-12
6.80208e-13
-1.83947e-13
8.4069e-14
-1.4217e-14
6.14549e-14
-6.27534e-14
-7.696e-15
3.06444e-14
-4.24354e-15
5.22948e-14
-2.93152e-15
-4.72153e-14
2.71051e-14
-1.35452e-09
-1.57652e-09
2.63153e-10
-1.23073e-10
2.53861e-11
-7.25006e-12
2.19772e-12
-5.26677e-13
1.43007e-13
-5.74033e-14
2.69063e-14
2.79536e-14
-1.68695e-15
-4.22639e-15
3.94399e-14
-3.0219e-14
-1.14777e-14
7.60227e-14
-3.14627e-14
-2.71051e-14
1.28031e-09
1.40749e-09
-2.39899e-10
1.09767e-10
-2.30289e-11
6.50203e-12
-2.01451e-12
3.72058e-13
-4.13995e-14
-7.95605e-15
6.20968e-14
-2.85668e-14
1.34445e-15
-4.89444e-14
3.00027e-14
3.27397e-14
-3.92585e-14
-3.89931e-14
2.21236e-14
0
-1.29885e-09
-1.15605e-09
1.88151e-10
-8.932e-11
1.80379e-11
-5.18228e-12
1.49328e-12
-3.11529e-13
1.4126e-13
-5.3337e-14
2.06312e-14
-3.52062e-14
4.66085e-14
-1.44114e-14
8.85668e-15
-1.16948e-14
-8.62993e-15
3.12423e-14
1.13654e-14
-2.71051e-14
1.19482e-09
1.11031e-09
-1.89745e-10
8.62536e-11
-1.82173e-11
5.14565e-12
-1.59587e-12
3.7661e-13
-1.18461e-13
2.3059e-14
-2.22208e-15
1.75913e-14
-1.1347e-15
9.04204e-15
-1.29742e-15
3.17841e-14
-1.94127e-14
-2.84221e-14
-5.14762e-15
0
-1.25524e-09
-8.87515e-10
1.37621e-10
-6.77293e-11
1.28264e-11
-3.71961e-12
1.05973e-12
-1.65568e-13
8.41065e-14
3.71923e-14
2.30239e-14
-6.11509e-14
5.50569e-14
-7.12195e-14
2.8542e-14
-1.52501e-15
3.76393e-14
2.07756e-14
-2.43317e-15
0
1.13505e-09
9.49189e-10
-1.72277e-10
7.38436e-11
-1.68438e-11
4.91222e-12
-1.30003e-12
4.74654e-13
-7.18175e-14
5.94267e-14
-1.69961e-14
3.93362e-14
3.05182e-15
-5.5736e-15
1.36284e-14
1.0767e-14
-4.7638e-14
-4.56382e-15
6.52816e-14
-2.71051e-14
-1.28009e-09
-6.07238e-10
4.43446e-11
-3.18347e-11
3.78812e-12
1.09165e-12
2.01064e-13
3.35177e-13
1.33575e-14
2.81037e-14
-2.79105e-15
-6.76617e-15
-5.23667e-15
2.52191e-14
-3.07494e-14
-4.21216e-14
5.10092e-14
-3.65953e-14
1.58687e-14
0
7.45552e-10
9.49487e-10
-1.59042e-10
9.80825e-11
-1.82714e-11
8.39729e-12
-2.38449e-12
7.58619e-13
-3.07069e-13
2.38424e-14
-2.77142e-14
2.34926e-14
-6.4737e-14
-1.44821e-14
1.16116e-14
2.9603e-14
3.20371e-14
-9.85083e-15
1.01923e-14
-2.71051e-14
-9.95108e-10
6.24826e-10
-5.48932e-10
2.80348e-10
-1.1338e-10
3.68087e-11
-1.30646e-11
3.79471e-12
-1.40946e-12
3.52366e-13
-1.35525e-13
2.71051e-14
-5.42101e-14
5.42101e-14
0
-2.71051e-14
0
0
0
0
)
;

boundaryField
{
    movingWall
    {
        type            extrapolatedCalculated;
        value           nonuniform List<scalar> 
20
(
-9.95108e-10
6.24826e-10
-5.48932e-10
2.80348e-10
-1.1338e-10
3.68087e-11
-1.30646e-11
3.79471e-12
-1.40946e-12
3.52366e-13
-1.35525e-13
2.71051e-14
-5.42101e-14
5.42101e-14
0
-2.71051e-14
0
0
0
0
)
;
    }
    fixedWalls
    {
        type            extrapolatedCalculated;
        value           nonuniform List<scalar> 
60
(
-3.56838e-10
-3.00866e-12
-7.53819e-10
3.22713e-10
-9.11814e-11
-3.78414e-10
6.39761e-10
-9.67325e-10
1.10984e-09
-1.2834e-09
1.29508e-09
-1.35452e-09
1.28031e-09
-1.29885e-09
1.19482e-09
-1.25524e-09
1.13505e-09
-1.28009e-09
7.45552e-10
-9.95108e-10
0
0
0
-2.71051e-14
0
-2.71051e-14
0
-2.71051e-14
0
-2.71051e-14
2.71051e-14
-2.71051e-14
0
-2.71051e-14
0
0
-2.71051e-14
0
-2.71051e-14
0
-3.56838e-10
1.04998e-09
-6.06093e-10
3.16113e-10
-1.25729e-10
3.87425e-11
-1.45549e-11
3.86587e-12
-1.454e-12
3.32751e-13
-1.7874e-13
-3.73022e-15
-2.47731e-15
-1.67694e-14
-1.79334e-14
3.10148e-14
2.41723e-15
-2.23601e-14
-1.30417e-14
0
)
;
    }
    frontAndBack
    {
        type            empty;
    }
}


// ************************************************************************* //
