/*--------------------------------*- C++ -*----------------------------------*\
| =========                 |                                                 |
| \\      /  F ield         | OpenFOAM: The Open Source CFD Toolbox           |
|  \\    /   O peration     | Version:  2506                                  |
|   \\  /    A nd           | Website:  www.openfoam.com                      |
|    \\/     M anipulation  |                                                 |
\*---------------------------------------------------------------------------*/
FoamFile
{
    version     2.0;
    format      ascii;
    arch        "LSB;label=32;scalar=64";
    class       volScalarField;
    location    "4.625";
    object      enstrophyField;
}
// * * * * * * * * * * * * * * * * * * * * * * * * * * * * * * * * * * * * * //

dimensions      [0 0 -2 0 0 0 0];

internalField   nonuniform List<scalar> 
400
(
2.40907e-13
3.70076e-13
2.08732e-14
1.1843e-15
6.64086e-17
3.84148e-18
2.06549e-19
1.3507e-20
5.05919e-22
8.0417e-23
1.10996e-25
2.59875e-24
6.38737e-25
3.74217e-25
1.32856e-25
5.34567e-26
1.7462e-26
3.40479e-27
3.22013e-27
8.02988e-29
2.38402e-13
3.69716e-13
2.0869e-14
1.17787e-15
6.64846e-17
3.75235e-18
2.11821e-19
1.19481e-20
6.7635e-22
3.80717e-23
2.2367e-24
7.84408e-26
8.40034e-27
6.66582e-28
1.76943e-29
5.16616e-28
2.04107e-30
2.34366e-27
2.41757e-28
7.76994e-28
2.37756e-13
3.67826e-13
2.072e-14
1.1671e-15
6.57382e-17
3.70336e-18
2.08532e-19
1.17571e-20
6.59015e-22
3.83338e-23
1.87982e-24
1.85274e-25
5.07447e-29
1.59876e-26
8.35096e-27
3.74881e-27
6.68606e-27
4.30608e-27
2.46258e-27
3.25842e-27
2.38908e-13
3.66848e-13
2.06562e-14
1.16299e-15
6.54802e-17
3.6865e-18
2.07619e-19
1.16802e-20
6.61529e-22
3.62446e-23
2.25698e-24
9.26176e-26
1.54193e-26
1.36447e-27
7.25583e-27
4.42506e-27
1.18702e-26
7.86987e-27
6.81449e-27
9.024e-28
2.38417e-13
3.64936e-13
2.05425e-14
1.15626e-15
6.50783e-17
3.66407e-18
2.06001e-19
1.1647e-20
6.45891e-22
3.80357e-23
1.72552e-24
2.0774e-25
7.45973e-28
3.8417e-27
1.94319e-27
7.13262e-27
1.02042e-26
7.47598e-27
2.07917e-27
4.87503e-27
2.37748e-13
3.63058e-13
2.04335e-14
1.14992e-15
6.47166e-17
3.64167e-18
2.05082e-19
1.151e-20
6.54959e-22
3.49787e-23
2.45193e-24
6.2183e-26
4.37051e-26
4.96218e-27
1.01575e-26
5.54745e-27
4.39844e-27
2.18286e-27
3.35542e-27
8.50927e-27
2.36555e-13
3.60941e-13
2.03126e-14
1.14303e-15
6.43203e-17
3.61934e-18
2.03676e-19
1.14622e-20
6.43395e-22
3.62998e-23
2.07276e-24
1.40384e-25
1.82475e-27
4.49054e-27
3.42676e-27
9.02414e-28
4.46096e-27
8.57953e-27
5.90479e-27
1.98619e-27
2.35358e-13
3.59006e-13
2.02031e-14
1.13681e-15
6.39709e-17
3.59915e-18
2.02627e-19
1.13747e-20
6.45559e-22
3.48195e-23
2.38826e-24
6.87035e-26
1.9327e-26
8.05023e-27
7.57061e-27
1.35702e-26
5.57773e-27
8.09948e-28
3.69118e-27
7.42034e-27
2.34052e-13
3.57087e-13
2.00949e-14
1.13074e-15
6.36227e-17
3.58074e-18
2.01355e-19
1.13641e-20
6.31894e-22
3.7305e-23
1.69759e-24
1.61516e-25
3.86657e-27
2.17284e-26
1.1543e-26
1.78731e-26
1.54419e-27
2.96935e-27
1.93417e-27
3.33274e-27
2.32838e-13
3.55371e-13
1.99987e-14
1.12533e-15
6.33237e-17
3.56298e-18
2.00581e-19
1.12751e-20
6.38774e-22
3.50898e-23
2.12123e-24
5.12393e-26
1.67733e-26
2.9166e-28
3.27303e-27
6.40773e-28
3.75147e-27
2.44314e-27
1.06407e-27
6.29527e-28
2.31668e-13
3.53764e-13
1.99085e-14
1.12028e-15
6.30401e-17
3.54743e-18
1.99637e-19
1.12413e-20
6.33482e-22
3.52702e-23
2.01705e-24
1.26333e-25
1.64531e-26
1.19948e-28
1.88413e-27
1.99725e-28
3.85028e-30
5.23521e-28
8.56961e-28
7.69785e-28
2.30598e-13
3.52314e-13
1.98274e-14
1.11575e-15
6.27858e-17
3.53318e-18
1.98907e-19
1.11918e-20
6.30585e-22
3.51024e-23
1.95409e-24
9.11716e-26
3.86505e-27
1.29053e-27
1.67816e-27
7.90457e-29
3.42611e-27
2.2547e-27
4.76131e-28
4.87907e-31
2.29644e-13
3.51004e-13
1.97541e-14
1.11164e-15
6.25564e-17
3.52069e-18
1.98088e-19
1.11708e-20
6.24165e-22
3.63126e-23
1.85617e-24
1.44144e-25
3.2702e-28
4.13981e-27
2.47954e-28
6.31586e-29
2.55995e-31
2.4802e-29
1.70994e-29
2.3567e-29
2.28743e-13
3.49772e-13
1.96852e-14
1.10777e-15
6.23419e-17
3.50806e-18
1.97443e-19
1.11052e-20
6.28021e-22
3.53531e-23
2.1692e-24
1.00831e-25
8.49278e-27
9.23623e-28
9.97762e-30
1.68329e-27
2.52172e-27
7.99803e-28
4.22374e-28
3.81525e-28
2.28013e-13
3.48701e-13
1.96251e-14
1.10441e-15
6.21523e-17
3.49761e-18
1.96876e-19
1.10684e-20
6.25646e-22
3.47744e-23
2.03959e-24
8.95028e-26
4.69611e-27
2.39308e-28
1.8846e-27
8.21565e-28
2.32652e-28
5.40723e-28
1.94071e-28
1.56414e-27
2.27212e-13
3.47598e-13
1.95632e-14
1.10093e-15
6.19553e-17
3.48703e-18
1.96178e-19
1.10624e-20
6.19948e-22
3.55217e-23
1.78537e-24
1.56634e-25
5.56119e-27
1.19168e-27
1.21032e-28
2.56835e-28
2.43496e-27
6.83339e-27
1.58874e-27
1.16108e-29
2.26734e-13
3.46724e-13
1.9514e-14
1.09816e-15
6.17998e-17
3.47802e-18
1.95671e-19
1.10301e-20
6.18499e-22
3.53514e-23
1.96224e-24
1.25283e-25
1.56131e-26
1.16304e-27
3.3121e-27
9.16387e-29
5.72267e-28
1.79179e-27
2.76725e-27
1.68241e-28
2.25812e-13
3.45621e-13
1.9452e-14
1.09468e-15
6.16041e-17
3.4667e-18
1.95141e-19
1.09711e-20
6.18803e-22
3.4676e-23
2.00224e-24
1.49997e-25
1.1418e-29
1.39823e-26
4.77556e-27
5.65013e-28
1.27429e-29
1.53256e-27
6.5039e-28
3.73154e-28
2.26464e-13
3.45748e-13
1.94887e-14
1.0984e-15
6.19089e-17
3.48896e-18
1.96738e-19
1.10754e-20
6.28059e-22
3.48106e-23
1.98673e-24
1.09909e-25
6.97134e-27
4.51087e-30
3.04177e-28
1.84061e-29
1.14224e-31
2.36812e-29
2.39611e-28
9.62323e-28
2.26228e-13
3.44807e-13
1.94283e-14
1.09941e-15
6.17672e-17
3.54042e-18
1.94024e-19
1.20002e-20
5.35764e-22
5.5342e-23
2.59033e-25
8.79526e-25
8.53474e-26
6.13911e-26
2.1873e-26
1.31249e-26
4.56905e-27
2.20132e-27
9.22918e-29
1.32127e-30
)
;

boundaryField
{
    movingWall
    {
        type            calculated;
        value           nonuniform List<scalar> 
20
(
2.26258e-13
3.46376e-13
1.9583e-14
1.11939e-15
6.29105e-17
3.6957e-18
1.97448e-19
1.35302e-20
4.71578e-22
8.57891e-23
2.38348e-25
3.00083e-24
5.83085e-25
4.01423e-25
1.78047e-25
5.69043e-26
1.84155e-26
5.09647e-27
9.22918e-29
1.32127e-30
)
;
    }
    fixedWalls
    {
        type            calculated;
        value           nonuniform List<scalar> 
60
(
6.64069e-12
6.63016e-12
6.60675e-12
6.58985e-12
6.55604e-12
6.52262e-12
6.48478e-12
6.45009e-12
6.41564e-12
6.38479e-12
6.35587e-12
6.32976e-12
6.30617e-12
6.28398e-12
6.26468e-12
6.24484e-12
6.22907e-12
6.20921e-12
6.20238e-12
6.18753e-12
1.32718e-29
7.42969e-28
2.58183e-27
6.40906e-28
5.69414e-27
8.11276e-27
1.48626e-27
7.4666e-27
4.7019e-27
1.49208e-27
9.46101e-28
1.80462e-28
9.07684e-29
2.53742e-28
1.74027e-27
1.35166e-28
3.35208e-31
4.3015e-29
8.32384e-28
3.02808e-29
2.44511e-13
3.72704e-13
2.11024e-14
1.21149e-15
6.76982e-17
4.05393e-18
2.07523e-19
1.59012e-20
3.71265e-22
1.49051e-22
5.18435e-24
9.29812e-24
3.22695e-24
1.72131e-24
7.52302e-25
2.41481e-25
1.09671e-25
1.30471e-26
2.48161e-27
8.02988e-29
)
;
    }
    frontAndBack
    {
        type            empty;
    }
}


// ************************************************************************* //
