/*--------------------------------*- C++ -*----------------------------------*\
| =========                 |                                                 |
| \\      /  F ield         | OpenFOAM: The Open Source CFD Toolbox           |
|  \\    /   O peration     | Version:  2506                                  |
|   \\  /    A nd           | Website:  www.openfoam.com                      |
|    \\/     M anipulation  |                                                 |
\*---------------------------------------------------------------------------*/
FoamFile
{
    version     2.0;
    format      ascii;
    arch        "LSB;label=32;scalar=64";
    class       volScalarField;
    location    "4.625";
    object      epsilonzeroGrad;
}
// * * * * * * * * * * * * * * * * * * * * * * * * * * * * * * * * * * * * * //

dimensions      [0 2 -3 0 0 0 0];

internalField   nonuniform List<scalar> 
400
(
1.22247e-05
1.22246e-05
1.22246e-05
1.22245e-05
1.22245e-05
1.22245e-05
1.22244e-05
1.22244e-05
1.22244e-05
1.22244e-05
1.22243e-05
1.22243e-05
1.22243e-05
1.22243e-05
1.22243e-05
1.22243e-05
1.22243e-05
1.22243e-05
1.22243e-05
1.22243e-05
1.45337e-05
1.41496e-05
1.41802e-05
1.41929e-05
1.42184e-05
1.42318e-05
1.42573e-05
1.42713e-05
1.42969e-05
1.43114e-05
1.43373e-05
1.43523e-05
1.43784e-05
1.43939e-05
1.44202e-05
1.44363e-05
1.44627e-05
1.44794e-05
1.44927e-05
1.45144e-05
1.77043e-05
1.71968e-05
1.72376e-05
1.72545e-05
1.72883e-05
1.73061e-05
1.73399e-05
1.73584e-05
1.73924e-05
1.74114e-05
1.74456e-05
1.74652e-05
1.74996e-05
1.75198e-05
1.75544e-05
1.75752e-05
1.76099e-05
1.76314e-05
1.76489e-05
1.76772e-05
2.04449e-05
1.98261e-05
1.98755e-05
1.9896e-05
1.99371e-05
1.99586e-05
1.99997e-05
2.00222e-05
2.00634e-05
2.00866e-05
2.01281e-05
2.01521e-05
2.01939e-05
2.02185e-05
2.02606e-05
2.0286e-05
2.03283e-05
2.03546e-05
2.03758e-05
2.04103e-05
2.23254e-05
2.16261e-05
2.16818e-05
2.17048e-05
2.1751e-05
2.17754e-05
2.18216e-05
2.18469e-05
2.18934e-05
2.19196e-05
2.19664e-05
2.19934e-05
2.20406e-05
2.20684e-05
2.21159e-05
2.21447e-05
2.21923e-05
2.22221e-05
2.2246e-05
2.22851e-05
2.34679e-05
2.27187e-05
2.27782e-05
2.28028e-05
2.28523e-05
2.28783e-05
2.29278e-05
2.29548e-05
2.30046e-05
2.30326e-05
2.30827e-05
2.31116e-05
2.31621e-05
2.31919e-05
2.32427e-05
2.32736e-05
2.33246e-05
2.33565e-05
2.33822e-05
2.3424e-05
2.41322e-05
2.33537e-05
2.34154e-05
2.3441e-05
2.34923e-05
2.35193e-05
2.35707e-05
2.35988e-05
2.36504e-05
2.36796e-05
2.37315e-05
2.37616e-05
2.3814e-05
2.3845e-05
2.38977e-05
2.39298e-05
2.39828e-05
2.4016e-05
2.40427e-05
2.40861e-05
2.45303e-05
2.37342e-05
2.37972e-05
2.38234e-05
2.38758e-05
2.39034e-05
2.39559e-05
2.39847e-05
2.40374e-05
2.40672e-05
2.41203e-05
2.41511e-05
2.42046e-05
2.42364e-05
2.42902e-05
2.43231e-05
2.43772e-05
2.44112e-05
2.44384e-05
2.44829e-05
2.4795e-05
2.39872e-05
2.40511e-05
2.40776e-05
2.41308e-05
2.41588e-05
2.42121e-05
2.42412e-05
2.42947e-05
2.4325e-05
2.43788e-05
2.44101e-05
2.44644e-05
2.44966e-05
2.45512e-05
2.45846e-05
2.46395e-05
2.4674e-05
2.47016e-05
2.47467e-05
2.50001e-05
2.41832e-05
2.42479e-05
2.42747e-05
2.43284e-05
2.43567e-05
2.44105e-05
2.444e-05
2.44941e-05
2.45247e-05
2.45791e-05
2.46107e-05
2.46656e-05
2.46982e-05
2.47534e-05
2.47871e-05
2.48427e-05
2.48775e-05
2.49055e-05
2.49511e-05
2.51847e-05
2.43597e-05
2.44249e-05
2.4452e-05
2.45062e-05
2.45348e-05
2.45892e-05
2.46189e-05
2.46735e-05
2.47044e-05
2.47594e-05
2.47913e-05
2.48467e-05
2.48796e-05
2.49354e-05
2.49694e-05
2.50255e-05
2.50607e-05
2.5089e-05
2.5135e-05
2.53698e-05
2.45368e-05
2.46026e-05
2.46299e-05
2.46847e-05
2.47136e-05
2.47684e-05
2.47985e-05
2.48536e-05
2.48848e-05
2.49403e-05
2.49725e-05
2.50285e-05
2.50617e-05
2.5118e-05
2.51524e-05
2.5209e-05
2.52446e-05
2.52731e-05
2.53196e-05
2.55686e-05
2.47267e-05
2.47932e-05
2.48208e-05
2.48762e-05
2.49053e-05
2.49607e-05
2.49911e-05
2.50468e-05
2.50783e-05
2.51344e-05
2.51669e-05
2.52234e-05
2.5257e-05
2.53139e-05
2.53487e-05
2.54059e-05
2.54419e-05
2.54706e-05
2.55176e-05
2.57899e-05
2.49383e-05
2.50055e-05
2.50334e-05
2.50894e-05
2.51189e-05
2.51749e-05
2.52056e-05
2.5262e-05
2.52938e-05
2.53506e-05
2.53835e-05
2.54406e-05
2.54746e-05
2.55322e-05
2.55673e-05
2.56252e-05
2.56616e-05
2.56907e-05
2.57382e-05
2.60419e-05
2.51792e-05
2.52473e-05
2.52755e-05
2.53322e-05
2.5362e-05
2.54188e-05
2.54499e-05
2.5507e-05
2.55392e-05
2.55967e-05
2.563e-05
2.56879e-05
2.57224e-05
2.57806e-05
2.58162e-05
2.58748e-05
2.59117e-05
2.59412e-05
2.59894e-05
2.63311e-05
2.54557e-05
2.55247e-05
2.55534e-05
2.56109e-05
2.56411e-05
2.56987e-05
2.57303e-05
2.57882e-05
2.58209e-05
2.58792e-05
2.5913e-05
2.59718e-05
2.60067e-05
2.60658e-05
2.6102e-05
2.61614e-05
2.61989e-05
2.62288e-05
2.62777e-05
2.66572e-05
2.57672e-05
2.58374e-05
2.58665e-05
2.59249e-05
2.59557e-05
2.60142e-05
2.60463e-05
2.61051e-05
2.61384e-05
2.61976e-05
2.6232e-05
2.62917e-05
2.63272e-05
2.63873e-05
2.6424e-05
2.64844e-05
2.65225e-05
2.65529e-05
2.66026e-05
2.69989e-05
2.60942e-05
2.61654e-05
2.6195e-05
2.62543e-05
2.62856e-05
2.6345e-05
2.63776e-05
2.64374e-05
2.64712e-05
2.65314e-05
2.65664e-05
2.6627e-05
2.66632e-05
2.67243e-05
2.67617e-05
2.68231e-05
2.68618e-05
2.68927e-05
2.69432e-05
2.72996e-05
2.64015e-05
2.64708e-05
2.64997e-05
2.65576e-05
2.65884e-05
2.66466e-05
2.6679e-05
2.67377e-05
2.67716e-05
2.68309e-05
2.68662e-05
2.69261e-05
2.69628e-05
2.70234e-05
2.70617e-05
2.71228e-05
2.71627e-05
2.71936e-05
2.72447e-05
2.74278e-05
2.74276e-05
2.74275e-05
2.74273e-05
2.74273e-05
2.74271e-05
2.74271e-05
2.7427e-05
2.7427e-05
2.74269e-05
2.74269e-05
2.74268e-05
2.74268e-05
2.74268e-05
2.74268e-05
2.74268e-05
2.74268e-05
2.74268e-05
2.74268e-05
2.74268e-05
)
;

boundaryField
{
    movingWall
    {
        type            zeroGradient;
    }
    fixedWalls
    {
        type            zeroGradient;
    }
    frontAndBack
    {
        type            empty;
    }
}


// ************************************************************************* //
