/*--------------------------------*- C++ -*----------------------------------*\
| =========                 |                                                 |
| \\      /  F ield         | OpenFOAM: The Open Source CFD Toolbox           |
|  \\    /   O peration     | Version:  2506                                  |
|   \\  /    A nd           | Website:  www.openfoam.com                      |
|    \\/     M anipulation  |                                                 |
\*---------------------------------------------------------------------------*/
FoamFile
{
    version     2.0;
    format      ascii;
    arch        "LSB;label=32;scalar=64";
    class       volScalarField;
    location    "4.625";
    object      flowTypeField;
}
// * * * * * * * * * * * * * * * * * * * * * * * * * * * * * * * * * * * * * //

dimensions      [0 0 0 0 0 0 0];

internalField   nonuniform List<scalar> 
400
(
0.0012009
-0.000516198
-0.000870923
-0.00310289
-0.00128781
-0.0111074
0.00987052
-0.0564297
0.129161
-0.364187
0.818904
-0.158842
0.14445
0.0655547
0.150118
0.155554
0.241751
0.408481
0.110192
0.21456
0.00620577
0.000246474
0.000532545
-0.00175833
-0.00040585
-0.00601942
0.00150457
-0.0206292
0.0259513
-0.0882155
0.23683
0.477881
0.773421
0.89778
0.971259
0.811129
0.981187
0.197936
0.619638
0.177495
0.00607122
0.000955575
0.00157405
0.00177248
0.00104566
0.00482754
-0.00371755
0.0197963
-0.0400104
0.105658
-0.197015
0.447176
0.973345
0.562856
0.537846
0.571947
0.264582
0.127492
0.105573
-0.480329
0.00174271
0.00027365
0.000394882
0.000356122
0.000708896
-0.000895182
0.00504246
-0.014143
0.0401524
-0.135561
0.252675
0.261206
0.681497
0.822529
0.541765
0.549884
0.202918
0.0396616
-0.214384
0.489553
-7.43871e-08
-8.69909e-06
-3.97481e-05
-9.86764e-06
-0.000194225
0.000592607
-0.00273007
0.0091712
-0.0318552
0.0883452
-0.440912
0.386701
0.875172
0.73746
0.7266
0.406302
0.1634
0.0260265
0.383116
0.00440423
-0.00135909
-0.00021666
-0.000414153
-0.00034814
-0.000443963
-0.000984306
0.00108119
-0.00770933
0.0225283
-0.0831087
0.176046
0.110711
0.425782
0.654482
0.433949
0.434636
0.372552
0.483706
0.264874
-0.20516
-0.00181049
-0.000291679
-0.000505654
-0.000473649
-0.000608413
-0.000496596
-0.00196088
0.00428311
-0.0206311
0.0714067
-0.290235
0.438453
0.815545
0.706494
0.650375
0.761651
0.381247
0.085601
0.00225502
0.298441
-0.0019966
-0.000316465
-0.000555518
-0.000491042
-0.000642143
-0.000835462
-0.000274472
-0.00340801
0.0104476
-0.0369264
0.118324
0.256355
0.569436
0.556214
0.451927
0.254637
0.430805
0.594693
0.0533507
-0.2183
-0.00187563
-0.000298151
-0.000503674
-0.000478734
-0.000542671
-0.000735209
-0.00083612
-5.68103e-05
-0.0051007
0.0205586
0.00237746
0.291674
0.691094
0.37013
0.332985
-0.000644149
0.555283
0.154529
0.261686
0.000828749
-0.00166391
-0.000261548
-0.000443076
-0.000402246
-0.000502056
-0.000587938
-0.000607992
-0.00143413
0.000604761
-0.00559408
0.0891202
0.41722
0.556843
0.885669
0.601744
0.703786
0.210389
0.341034
0.142983
0.436997
-0.00137596
-0.000214746
-0.000358441
-0.000331034
-0.000388428
-0.000496229
-0.000550291
-0.000819763
-0.00201118
0.0119891
0.0223568
0.304199
0.462014
0.925761
0.694757
0.809002
0.96725
0.542009
0.22664
0.403132
-0.00108138
-0.000167302
-0.000275154
-0.000255741
-0.000294144
-0.000331356
-0.000753457
0.000374539
-0.00408192
0.0194868
0.0247491
0.357655
0.719441
0.787772
0.712867
0.8703
0.354195
0.509437
0.334087
0.894543
-0.000844078
-0.000128528
-0.000214491
-0.000191075
-0.000218871
-0.000390601
0.000218421
-0.00321176
0.0101714
-0.0387925
0.141808
0.0500174
0.915263
0.600128
0.873147
0.90609
0.97984
0.849321
0.859893
0.727807
-0.00060616
-9.29349e-05
-0.000144996
-0.000138445
-0.000175957
2.47527e-06
-0.00102093
0.00345858
-0.0151214
0.0424273
-0.164593
0.399542
0.539159
0.788539
0.961609
0.552965
0.322545
0.561657
0.264286
0.258227
-0.000541098
-8.1061e-05
-0.000141254
-0.000120751
-0.00010929
-0.000465318
0.00108039
-0.00507432
0.0159678
-0.0560311
0.156079
-0.0796219
0.71756
0.860105
0.540286
0.662278
0.662441
0.213207
0.656757
-0.743426
-0.000330176
-5.34633e-05
-7.39191e-05
-6.57866e-05
-0.000172546
0.000421747
-0.00211336
0.00652399
-0.0234848
0.0636779
-0.240207
0.306127
0.554467
0.740167
0.84798
0.722674
0.218492
-0.486746
-0.835614
0.841462
-0.000597467
-9.32641e-05
-0.000160341
-0.00019121
5.04375e-05
-0.00128098
0.00306826
-0.0112443
0.0291808
-0.103087
0.197811
-0.311223
0.51865
0.75158
0.577296
0.815485
0.624028
0.000429501
0.226306
0.404174
-4.66639e-05
-2.81775e-05
-8.92707e-06
0.000230577
-0.000447321
0.00199443
-0.00405
0.0126703
-0.0308459
0.0796133
-0.249235
0.341169
0.971156
0.222545
0.284487
0.699445
0.876012
0.416854
0.00852687
0.00667756
-0.0025719
-0.00115279
-0.00187489
-0.00364131
-0.00353186
-0.00813825
-0.00400477
-0.0201862
0.0092693
-0.0685787
0.151963
0.145134
0.679943
0.97594
0.756505
0.898651
0.968765
0.810245
0.255288
-0.0434574
-0.00324399
-0.00122747
-0.002124
-0.00392579
-0.00345032
-0.0105062
0.00150494
-0.0398503
0.0662639
-0.220419
0.64064
-0.293004
0.312762
0.0658808
0.194593
0.148293
0.126168
0.0752705
0.540271
0.17984
)
;

boundaryField
{
    movingWall
    {
        type            calculated;
        value           nonuniform List<scalar> 
20
(
0.763522
0.267407
0.266219
0.261507
0.26262
0.24907
0.267819
0.201429
0.359977
-0.0618719
0.787272
-0.254974
0.130834
-0.0240905
0.0321161
0.0251327
0.0234314
0.0339023
0.526792
0.670635
)
;
    }
    fixedWalls
    {
        type            calculated;
        value           nonuniform List<scalar> 
60
(
0.00022965
0.00118413
0.00116928
0.000346869
1.64113e-05
-0.000245827
-0.000334394
-0.000373374
-0.000352396
-0.000314107
-0.000260163
-0.000204956
-0.000159981
-0.000115068
-0.000102652
-6.27807e-05
-0.000113593
-9.03997e-06
-0.000489841
-0.000618707
0.487228
0.0304295
-0.562054
0.622234
0.214395
0.0665234
0.329275
-0.136289
0.0871767
0.335357
0.125767
0.292336
0.656572
0.487855
-0.724291
0.616171
0.953901
0.731431
0.222082
0.0159979
0.762967
0.26741
0.266388
0.26069
0.264336
0.244972
0.278427
0.173863
0.45046
-0.241194
0.446057
-0.147353
0.0517126
-0.00834052
0.0259739
0.0298051
0.0456839
0.198099
0.180501
0.0677673
)
;
    }
    frontAndBack
    {
        type            empty;
    }
}


// ************************************************************************* //
