/*--------------------------------*- C++ -*----------------------------------*\
| =========                 |                                                 |
| \\      /  F ield         | OpenFOAM: The Open Source CFD Toolbox           |
|  \\    /   O peration     | Version:  2506                                  |
|   \\  /    A nd           | Website:  www.openfoam.com                      |
|    \\/     M anipulation  |                                                 |
\*---------------------------------------------------------------------------*/
FoamFile
{
    version     2.0;
    format      ascii;
    arch        "LSB;label=32;scalar=64";
    class       surfaceScalarField;
    location    "4.625";
    object      fluxField;
}
// * * * * * * * * * * * * * * * * * * * * * * * * * * * * * * * * * * * * * //

dimensions      [0 3 -1 0 0 0 0];

oriented        oriented;

internalField   nonuniform List<scalar> 
760
(
-5e-05
-3.64649e-17
-5e-05
7.24946e-17
-5e-05
2.26471e-17
-5e-05
5.87855e-18
-5e-05
6.10814e-18
-5e-05
1.45246e-18
-5e-05
1.579e-18
-5e-05
6.81863e-19
-5e-05
5.44519e-19
-5e-05
3.33909e-19
-5e-05
2.39918e-19
-5e-05
1.61698e-19
-5e-05
1.14577e-19
-5e-05
8.38991e-20
-5e-05
6.32793e-20
-5e-05
4.84113e-20
-5e-05
3.44856e-20
-5e-05
2.1515e-20
-5e-05
1.02921e-20
2.73124e-21
-5e-05
-4.09663e-16
-5e-05
1.45643e-16
-5e-05
-8.19989e-18
-5e-05
1.55636e-17
-5e-05
5.05922e-18
-5e-05
3.44254e-18
-5e-05
2.1713e-18
-5e-05
1.32073e-18
-5e-05
9.16124e-19
-5e-05
6.12594e-19
-5e-05
4.34289e-19
-5e-05
3.04304e-19
-5e-05
2.18498e-19
-5e-05
1.59222e-19
-5e-05
1.15159e-19
-5e-05
8.47681e-20
-5e-05
5.83707e-20
-5e-05
3.50247e-20
-5e-05
1.80543e-20
5.20634e-21
-5e-05
4.79264e-16
-5e-05
-1.42915e-16
-5e-05
4.65454e-17
-5e-05
-4.05719e-18
-5e-05
8.02073e-18
-5e-05
2.59066e-18
-5e-05
2.56706e-18
-5e-05
1.53523e-18
-5e-05
1.13367e-18
-5e-05
7.79325e-19
-5e-05
5.64966e-19
-5e-05
4.07657e-19
-5e-05
2.96765e-19
-5e-05
2.17195e-19
-5e-05
1.57686e-19
-5e-05
1.14113e-19
-5e-05
7.86386e-20
-5e-05
4.66832e-20
-5e-05
2.40736e-20
6.72881e-21
-5e-05
-6.58608e-16
-5e-05
1.77044e-16
-5e-05
-3.85364e-17
-5e-05
1.48531e-17
-5e-05
8.88273e-19
-5e-05
3.48595e-18
-5e-05
1.96768e-18
-5e-05
1.61043e-18
-5e-05
1.14108e-18
-5e-05
8.45009e-19
-5e-05
6.21561e-19
-5e-05
4.59796e-19
-5e-05
3.37621e-19
-5e-05
2.50383e-19
-5e-05
1.87451e-19
-5e-05
1.36919e-19
-5e-05
9.34152e-20
-5e-05
5.59086e-20
-5e-05
3.14811e-20
1.06015e-20
-5e-05
6.35933e-16
-5e-05
-1.60422e-16
-5e-05
4.20164e-17
-5e-05
-7.03991e-18
-5e-05
5.05909e-18
-5e-05
1.60219e-18
-5e-05
1.94396e-18
-5e-05
1.35776e-18
-5e-05
1.08196e-18
-5e-05
8.13795e-19
-5e-05
6.19808e-19
-5e-05
4.67105e-19
-5e-05
3.50316e-19
-5e-05
2.61562e-19
-5e-05
1.95077e-19
-5e-05
1.42582e-19
-5e-05
9.82267e-20
-5e-05
6.30906e-20
-5e-05
3.75862e-20
1.29369e-20
-5e-05
-6.74829e-16
-5e-05
1.65549e-16
-5e-05
-3.78507e-17
-5e-05
1.13863e-17
-5e-05
-4.4489e-19
-5e-05
2.23077e-18
-5e-05
1.30129e-18
-5e-05
1.20664e-18
-5e-05
9.32872e-19
-5e-05
7.40158e-19
-5e-05
5.75267e-19
-5e-05
4.44835e-19
-5e-05
3.41226e-19
-5e-05
2.57275e-19
-5e-05
1.90985e-19
-5e-05
1.3996e-19
-5e-05
9.98208e-20
-5e-05
6.57929e-20
-5e-05
3.70017e-20
1.13688e-20
-5e-05
6.10188e-16
-5e-05
-1.45279e-16
-5e-05
3.58875e-17
-5e-05
-7.0287e-18
-5e-05
3.29544e-18
-5e-05
7.57989e-19
-5e-05
1.20645e-18
-5e-05
9.04953e-19
-5e-05
7.771e-19
-5e-05
6.18834e-19
-5e-05
4.96046e-19
-5e-05
3.91731e-19
-5e-05
3.07171e-19
-5e-05
2.3571e-19
-5e-05
1.77218e-19
-5e-05
1.30041e-19
-5e-05
9.15298e-20
-5e-05
5.96933e-20
-5e-05
3.51671e-20
1.10451e-20
-5e-05
-5.94623e-16
-5e-05
1.40679e-16
-5e-05
-3.25966e-17
-5e-05
8.69849e-18
-5e-05
-9.65375e-19
-5e-05
1.29707e-18
-5e-05
6.84301e-19
-5e-05
7.15463e-19
-5e-05
5.79916e-19
-5e-05
4.84353e-19
-5e-05
3.91542e-19
-5e-05
3.17307e-19
-5e-05
2.54032e-19
-5e-05
1.98737e-19
-5e-05
1.49866e-19
-5e-05
1.0966e-19
-5e-05
7.49658e-20
-5e-05
4.90335e-20
-5e-05
3.20856e-20
1.20044e-20
-5e-05
5.29309e-16
-5e-05
-1.23294e-16
-5e-05
2.96824e-17
-5e-05
-6.33843e-18
-5e-05
2.15342e-18
-5e-05
1.66566e-19
-5e-05
6.00222e-19
-5e-05
4.37847e-19
-5e-05
4.04797e-19
-5e-05
3.42157e-19
-5e-05
2.85493e-19
-5e-05
2.33666e-19
-5e-05
1.89552e-19
-5e-05
1.5234e-19
-5e-05
1.17846e-19
-5e-05
8.73517e-20
-5e-05
6.16298e-20
-5e-05
3.8251e-20
-5e-05
2.48886e-20
1.11691e-20
-5e-05
-4.93883e-16
-5e-05
1.15037e-16
-5e-05
-2.69485e-17
-5e-05
6.59071e-18
-5e-05
-1.22068e-18
-5e-05
6.14376e-19
-5e-05
1.76006e-19
-5e-05
2.54963e-19
-5e-05
2.11961e-19
-5e-05
1.97543e-19
-5e-05
1.72703e-19
-5e-05
1.44082e-19
-5e-05
1.20293e-19
-5e-05
1.02985e-19
-5e-05
8.42457e-20
-5e-05
6.42235e-20
-5e-05
4.99706e-20
-5e-05
2.97098e-20
-5e-05
1.76294e-20
7.82699e-21
-5e-05
4.45257e-16
-5e-05
-1.03172e-16
-5e-05
2.43411e-17
-5e-05
-5.71198e-18
-5e-05
1.30132e-18
-5e-05
-3.15858e-19
-5e-05
7.72097e-20
-5e-05
7.42155e-21
-5e-05
4.21046e-20
-5e-05
4.81223e-20
-5e-05
5.74321e-20
-5e-05
5.60213e-20
-5e-05
5.20743e-20
-5e-05
5.22861e-20
-5e-05
4.83187e-20
-5e-05
3.95967e-20
-5e-05
3.34025e-20
-5e-05
1.95959e-20
-5e-05
8.52496e-21
1.53134e-21
-5e-05
-4.04637e-16
-5e-05
9.39902e-17
-5e-05
-2.24725e-17
-5e-05
4.90197e-18
-5e-05
-1.5275e-18
-5e-05
-3.25223e-21
-5e-05
-3.11156e-19
-5e-05
-1.72327e-19
-5e-05
-1.40431e-19
-5e-05
-8.88897e-20
-5e-05
-5.42598e-20
-5e-05
-2.68929e-20
-5e-05
-1.39743e-20
-5e-05
-1.0566e-21
-5e-05
9.85997e-21
-5e-05
1.2774e-20
-5e-05
1.06831e-20
-5e-05
5.45314e-21
-5e-05
-1.08941e-21
-3.72354e-21
-5e-05
3.80531e-16
-5e-05
-8.88217e-17
-5e-05
2.03783e-17
-5e-05
-5.545e-18
-5e-05
4.83707e-19
-5e-05
-8.68156e-19
-5e-05
-4.42641e-19
-5e-05
-4.15205e-19
-5e-05
-3.01729e-19
-5e-05
-2.18829e-19
-5e-05
-1.53882e-19
-5e-05
-1.02009e-19
-5e-05
-6.74265e-20
-5e-05
-4.61174e-20
-5e-05
-2.63806e-20
-5e-05
-1.21439e-20
-5e-05
-9.81463e-21
-5e-05
-9.74827e-21
-5e-05
-8.02162e-21
-3.94413e-21
-5e-05
-3.37771e-16
-5e-05
7.88854e-17
-5e-05
-1.98169e-17
-5e-05
3.35881e-18
-5e-05
-2.13804e-18
-5e-05
-6.99259e-19
-5e-05
-8.39631e-19
-5e-05
-5.92878e-19
-5e-05
-4.59352e-19
-5e-05
-3.31819e-19
-5e-05
-2.38788e-19
-5e-05
-1.64656e-19
-5e-05
-1.10321e-19
-5e-05
-7.81417e-20
-5e-05
-5.19959e-20
-5e-05
-3.00288e-20
-5e-05
-2.24863e-20
-5e-05
-1.92945e-20
-5e-05
-1.07112e-20
-3.40115e-21
-5e-05
3.41603e-16
-5e-05
-8.10758e-17
-5e-05
1.725e-17
-5e-05
-6.18539e-18
-5e-05
-5.90221e-19
-5e-05
-1.58672e-18
-5e-05
-1.00205e-18
-5e-05
-8.07091e-19
-5e-05
-5.78493e-19
-5e-05
-4.2114e-19
-5e-05
-2.98711e-19
-5e-05
-2.05666e-19
-5e-05
-1.42585e-19
-5e-05
-9.93834e-20
-5e-05
-6.8087e-20
-5e-05
-4.62641e-20
-5e-05
-3.19582e-20
-5e-05
-2.06581e-20
-5e-05
-8.06317e-21
-4.71486e-21
-5e-05
-2.90143e-16
-5e-05
6.77455e-17
-5e-05
-1.95948e-17
-5e-05
1.33649e-18
-5e-05
-3.35961e-18
-5e-05
-1.53299e-18
-5e-05
-1.3817e-18
-5e-05
-9.22306e-19
-5e-05
-6.70152e-19
-5e-05
-4.6504e-19
-5e-05
-3.26281e-19
-5e-05
-2.25352e-19
-5e-05
-1.55642e-19
-5e-05
-1.05896e-19
-5e-05
-7.41797e-20
-5e-05
-5.45914e-20
-5e-05
-3.8024e-20
-5e-05
-2.19111e-20
-5e-05
-7.38456e-21
-2.77285e-21
-5e-05
3.28713e-16
-5e-05
-7.91136e-17
-5e-05
1.11137e-17
-5e-05
-8.08851e-18
-5e-05
-2.54398e-18
-5e-05
-2.30238e-18
-5e-05
-1.45664e-18
-5e-05
-9.79091e-19
-5e-05
-6.68476e-19
-5e-05
-4.52706e-19
-5e-05
-3.15957e-19
-5e-05
-2.20559e-19
-5e-05
-1.48315e-19
-5e-05
-9.62611e-20
-5e-05
-6.43555e-20
-5e-05
-4.47421e-20
-5e-05
-3.22383e-20
-5e-05
-2.14697e-20
-5e-05
-1.07846e-20
-6.30877e-22
-5e-05
-2.2707e-16
-5e-05
4.57729e-17
-5e-05
-3.1523e-17
-5e-05
3.01594e-19
-5e-05
-6.14772e-18
-5e-05
-1.39405e-18
-5e-05
-1.60992e-18
-5e-05
-7.56462e-19
-5e-05
-5.72643e-19
-5e-05
-3.52116e-19
-5e-05
-2.5142e-19
-5e-05
-1.71098e-19
-5e-05
-1.16506e-19
-5e-05
-7.50104e-20
-5e-05
-4.83449e-20
-5e-05
-3.08592e-20
-5e-05
-2.1129e-20
-5e-05
-1.59251e-20
-5e-05
-9.58536e-21
-1.43574e-21
-5e-05
2.9156e-16
-5e-05
-9.25848e-17
-5e-05
-6.26532e-18
-5e-05
-3.81093e-18
-5e-05
-4.32391e-18
-5e-05
-6.72168e-19
-5e-05
-1.11112e-18
-5e-05
-3.86328e-19
-5e-05
-3.41041e-19
-5e-05
-1.83775e-19
-5e-05
-1.35678e-19
-5e-05
-8.89945e-20
-5e-05
-6.36181e-20
-5e-05
-4.42781e-20
-5e-05
-3.09784e-20
-5e-05
-1.97043e-20
-5e-05
-1.23195e-20
-5e-05
-9.23897e-21
-5e-05
-4.22818e-21
-3.69649e-22
-5e-05
-5e-05
-5e-05
-5e-05
-5e-05
-5e-05
-5e-05
-5e-05
-5e-05
-5e-05
-5e-05
-5e-05
-5e-05
-5e-05
-5e-05
-5e-05
-5e-05
-5e-05
-5e-05
)
;

boundaryField
{
    movingWall
    {
        type            calculated;
        value           uniform -0;
    }
    fixedWalls
    {
        type            calculated;
        value           nonuniform List<scalar> 
60
(
5e-05
5e-05
5e-05
5e-05
5e-05
5e-05
5e-05
5e-05
5e-05
5e-05
5e-05
5e-05
5e-05
5e-05
5e-05
5e-05
5e-05
5e-05
5e-05
5e-05
-5e-05
-5e-05
-5e-05
-5e-05
-5e-05
-5e-05
-5e-05
-5e-05
-5e-05
-5e-05
-5e-05
-5e-05
-5e-05
-5e-05
-5e-05
-5e-05
-5e-05
-5e-05
-5e-05
-5e-05
0
0
0
0
0
0
0
0
0
0
0
0
0
0
0
0
0
0
0
0
)
;
    }
    frontAndBack
    {
        type            empty;
    }
}


// ************************************************************************* //
