/*--------------------------------*- C++ -*----------------------------------*\
| =========                 |                                                 |
| \\      /  F ield         | OpenFOAM: The Open Source CFD Toolbox           |
|  \\    /   O peration     | Version:  2506                                  |
|   \\  /    A nd           | Website:  www.openfoam.com                      |
|    \\/     M anipulation  |                                                 |
\*---------------------------------------------------------------------------*/
FoamFile
{
    version     2.0;
    format      ascii;
    arch        "LSB;label=32;scalar=64";
    class       volTensorField;
    location    "4.625";
    object      gradU;
}
// * * * * * * * * * * * * * * * * * * * * * * * * * * * * * * * * * * * * * //

dimensions      [0 0 -1 0 0 0 0];

internalField   nonuniform List<tensor> 
400
(
(-2.10986e-10 6.94963e-07 0 8.34538e-10 -1.4586e-10 0 0 0 0)
(7.59999e-10 -8.59876e-07 0 4.44252e-10 2.89978e-10 0 0 0 0)
(-6.96681e-10 2.04141e-07 0 -1.79002e-10 9.05882e-11 0 0 0 0)
(2.92599e-10 -4.85168e-08 0 1.51436e-10 2.35142e-11 0 0 0 0)
(-1.50162e-10 1.15088e-08 0 -1.58294e-11 2.44326e-11 0 0 0 0)
(3.29326e-11 -2.74116e-09 0 3.06558e-11 5.80982e-12 0 0 0 0)
(-2.08709e-11 6.48771e-10 0 6.04443e-12 6.31598e-12 0 0 0 0)
(1.13841e-12 -1.5555e-10 0 8.80914e-12 2.72745e-12 0 0 0 0)
(-3.63208e-12 3.63088e-11 0 4.49944e-12 2.17808e-12 0 0 0 0)
(-1.00289e-12 -9.04996e-12 0 3.63208e-12 1.33564e-12 0 0 0 0)
(-1.13841e-12 1.88698e-12 0 2.35814e-12 9.59672e-13 0 0 0 0)
(-6.50521e-13 -6.26396e-13 0 1.65341e-12 6.46791e-13 0 0 0 0)
(-4.60786e-13 3.52632e-14 0 1.16552e-12 4.58309e-13 0 0 0 0)
(-3.52366e-13 -7.90737e-14 0 7.86047e-13 3.35596e-13 0 0 0 0)
(-2.71051e-13 -2.75821e-14 0 4.87891e-13 2.53117e-13 0 0 0 0)
(-1.6263e-13 -2.88206e-14 0 2.98156e-13 1.93645e-13 0 0 0 0)
(-1.35525e-13 -2.42494e-14 0 1.6263e-13 1.37942e-13 0 0 0 0)
(-1.0842e-13 -2.83101e-14 0 5.42101e-14 8.60601e-14 0 0 0 0)
(-5.42101e-14 -2.60411e-14 0 5.42101e-14 4.11684e-14 0 0 0 0)
(0 -1.26727e-14 0 0 1.0925e-14 0 0 0 0)
(1.4898e-09 -6.94819e-07 0 -4.30873e-09 -1.49279e-09 0 0 0 0)
(-1.77351e-09 8.60113e-07 0 2.10118e-10 2.92594e-10 0 0 0 0)
(4.03811e-10 -2.04407e-07 0 -1.0842e-10 -1.23388e-10 0 0 0 0)
(-1.294e-10 4.84506e-08 0 -8.53809e-11 3.87401e-11 0 0 0 0)
(2.93819e-11 -1.15265e-08 0 4.71628e-12 -4.1957e-12 0 0 0 0)
(-1.10589e-11 2.72304e-09 0 -1.64257e-11 7.96032e-12 0 0 0 0)
(-9.48677e-13 -6.51853e-10 0 -9.75782e-13 2.3692e-12 0 0 0 0)
(-2.71051e-12 1.51412e-10 0 -3.17129e-12 2.55546e-12 0 0 0 0)
(-1.51788e-12 -3.77007e-11 0 -9.21572e-13 1.48642e-12 0 0 0 0)
(-1.19262e-12 7.83155e-12 0 -8.94467e-13 1.11474e-12 0 0 0 0)
(-8.13152e-13 -2.57583e-12 0 -4.60786e-13 7.77482e-13 0 0 0 0)
(-5.42101e-13 1.25032e-13 0 -2.71051e-13 5.70425e-13 0 0 0 0)
(-4.33681e-13 -3.46458e-13 0 -2.1684e-13 4.15682e-13 0 0 0 0)
(-3.25261e-13 -1.26118e-13 0 -1.6263e-13 3.01291e-13 0 0 0 0)
(-1.89735e-13 -1.14369e-13 0 -1.0842e-13 2.07519e-13 0 0 0 0)
(-1.35525e-13 -8.6354e-14 0 -5.42101e-14 1.45427e-13 0 0 0 0)
(-1.35525e-13 -8.33356e-14 0 -8.13152e-14 9.55404e-14 0 0 0 0)
(0 -6.8464e-14 0 0 5.40387e-14 0 0 0 0)
(-2.71051e-14 -4.9094e-14 0 -2.71051e-14 3.10488e-14 0 0 0 0)
(-2.71051e-14 -3.94207e-14 0 0 9.90037e-15 0 0 0 0)
(-4.30954e-09 6.93763e-07 0 4.18976e-09 3.55571e-09 0 0 0 0)
(4.96028e-09 -8.58507e-07 0 -8.05291e-10 -1.15423e-09 0 0 0 0)
(-9.92208e-10 2.03887e-07 0 3.18403e-10 2.18981e-10 0 0 0 0)
(4.05708e-10 -4.83976e-08 0 -8.40257e-11 -7.84831e-11 0 0 0 0)
(-8.12067e-11 1.1478e-08 0 1.17094e-11 1.1846e-11 0 0 0 0)
(2.72677e-11 -2.7346e-09 0 -1.30646e-11 -3.4075e-12 0 0 0 0)
(-7.64363e-12 6.43366e-10 0 -2.43945e-12 1.58306e-12 0 0 0 0)
(1.21973e-12 -1.56433e-10 0 -3.08998e-12 8.58018e-13 0 0 0 0)
(-1.38236e-12 3.48681e-11 0 -1.43657e-12 8.70201e-13 0 0 0 0)
(-4.87891e-13 -9.7589e-12 0 -1.00289e-12 6.66925e-13 0 0 0 0)
(-5.42101e-13 1.34267e-12 0 -5.96311e-13 5.22708e-13 0 0 0 0)
(-4.06576e-13 -9.88196e-13 0 -3.79471e-13 4.1341e-13 0 0 0 0)
(-3.25261e-13 -2.33871e-13 0 -2.43945e-13 3.1307e-13 0 0 0 0)
(-2.71051e-13 -2.87236e-13 0 -1.0842e-13 2.31893e-13 0 0 0 0)
(-1.89735e-13 -1.83446e-13 0 -5.42101e-14 1.70108e-13 0 0 0 0)
(-1.35525e-13 -1.40799e-13 0 -5.42101e-14 1.17378e-13 0 0 0 0)
(-8.13152e-14 -1.15638e-13 0 0 8.10715e-14 0 0 0 0)
(-2.71051e-14 -9.28018e-14 0 0 4.66341e-14 0 0 0 0)
(-2.71051e-14 -7.01794e-14 0 0 2.40774e-14 0 0 0 0)
(0 -5.36218e-14 0 2.71051e-14 6.0899e-15 0 0 0 0)
(4.87419e-09 -6.92418e-07 0 -1.17468e-09 -4.55149e-09 0 0 0 0)
(-5.6449e-09 8.56776e-07 0 2.14916e-10 1.27984e-09 0 0 0 0)
(1.1251e-09 -2.03331e-07 0 -7.6897e-11 -3.40327e-10 0 0 0 0)
(-4.36093e-10 4.82435e-08 0 1.51517e-11 7.56414e-11 0 0 0 0)
(1.00316e-10 -1.14514e-08 0 -7.64363e-12 -2.85298e-11 0 0 0 0)
(-2.51806e-11 2.71278e-09 0 -2.54788e-12 3.58115e-12 0 0 0 0)
(9.05309e-12 -6.47588e-10 0 -3.1984e-12 -2.39751e-12 0 0 0 0)
(-1.68051e-12 1.507e-10 0 -2.1413e-12 3.00801e-13 0 0 0 0)
(5.42101e-13 -3.78917e-11 0 -1.51788e-12 2.96384e-14 0 0 0 0)
(-3.25261e-13 7.48406e-12 0 -1.02999e-12 2.62733e-13 0 0 0 0)
(-2.1684e-13 -2.82934e-12 0 -7.04731e-13 2.26381e-13 0 0 0 0)
(-2.1684e-13 -8.46065e-14 0 -5.14996e-13 2.08557e-13 0 0 0 0)
(-1.35525e-13 -5.27975e-13 0 -3.52366e-13 1.63424e-13 0 0 0 0)
(-1.0842e-13 -2.6908e-13 0 -2.1684e-13 1.32752e-13 0 0 0 0)
(-1.0842e-13 -2.28885e-13 0 -1.0842e-13 1.1906e-13 0 0 0 0)
(-1.0842e-13 -1.7539e-13 0 -8.13152e-14 9.12266e-14 0 0 0 0)
(-1.0842e-13 -1.54079e-13 0 0 5.91064e-14 0 0 0 0)
(0 -1.25458e-13 0 0 3.69014e-14 0 0 0 0)
(0 -8.96382e-14 0 2.71051e-14 2.963e-14 0 0 0 0)
(-5.42101e-14 -6.9588e-14 0 -2.71051e-14 1.54906e-14 0 0 0 0)
(-5.26933e-09 6.90491e-07 0 -3.95734e-11 5.17816e-09 0 0 0 0)
(6.05806e-09 -8.54296e-07 0 2.99782e-11 -1.34987e-09 0 0 0 0)
(-1.192e-09 2.02683e-07 0 -1.18178e-11 3.22211e-10 0 0 0 0)
(4.74989e-10 -4.80858e-08 0 2.90024e-12 -8.75722e-11 0 0 0 0)
(-9.88792e-11 1.1406e-08 0 -2.6563e-12 1.66833e-11 0 0 0 0)
(3.16858e-11 -2.70846e-09 0 -1.40946e-12 -7.53503e-12 0 0 0 0)
(-7.26415e-12 6.40085e-10 0 -1.78893e-12 -9.48807e-14 0 0 0 0)
(2.90024e-12 -1.54006e-10 0 -1.38236e-12 -1.01067e-12 0 0 0 0)
(-2.43945e-13 3.48301e-11 0 -1.11131e-12 -2.36481e-13 0 0 0 0)
(2.98156e-13 -9.56215e-12 0 -8.40257e-13 -1.24855e-13 0 0 0 0)
(-2.71051e-14 1.28849e-12 0 -5.69206e-13 -7.01149e-15 0 0 0 0)
(0 -1.05115e-12 0 -4.06576e-13 2.92349e-14 0 0 0 0)
(-5.42101e-14 -3.09676e-13 0 -2.71051e-13 5.078e-14 0 0 0 0)
(-5.42101e-14 -3.31601e-13 0 -2.43945e-13 4.47171e-14 0 0 0 0)
(-5.42101e-14 -2.24971e-13 0 -1.6263e-13 3.05032e-14 0 0 0 0)
(0 -2.00752e-13 0 -8.13152e-14 2.26506e-14 0 0 0 0)
(0 -1.69963e-13 0 -2.71051e-14 1.9246e-14 0 0 0 0)
(0 -1.22278e-13 0 0 2.87283e-14 0 0 0 0)
(-5.42101e-14 -9.15903e-14 0 -2.71051e-14 2.44204e-14 0 0 0 0)
(0 -9.87424e-14 0 0 9.34172e-15 0 0 0 0)
(4.86463e-09 -6.88589e-07 0 9.73099e-10 -5.24305e-09 0 0 0 0)
(-5.61709e-09 8.5192e-07 0 -2.04101e-10 1.30389e-09 0 0 0 0)
(1.098e-09 -2.02069e-07 0 8.69259e-11 -3.19468e-10 0 0 0 0)
(-4.26932e-10 4.7938e-08 0 -1.86483e-11 7.37049e-11 0 0 0 0)
(9.5979e-11 -1.13714e-08 0 5.47522e-12 -2.20159e-11 0 0 0 0)
(-2.43132e-11 2.696e-09 0 -2.76472e-12 2.51432e-12 0 0 0 0)
(9.1073e-12 -6.41063e-10 0 -6.23416e-13 -2.5707e-12 0 0 0 0)
(-1.02999e-12 1.50558e-10 0 -1.16552e-12 -6.04511e-13 0 0 0 0)
(1.11131e-12 -3.70059e-11 0 -8.13152e-13 -5.96366e-13 0 0 0 0)
(1.89735e-13 7.71353e-12 0 -6.50521e-13 -2.94547e-13 0 0 0 0)
(2.1684e-13 -2.67525e-12 0 -4.60786e-13 -1.78166e-13 0 0 0 0)
(8.13152e-14 -2.6815e-14 0 -3.79471e-13 -8.90796e-14 0 0 0 0)
(5.42101e-14 -5.12493e-13 0 -2.1684e-13 -3.6359e-14 0 0 0 0)
(0 -2.89356e-13 0 -1.89735e-13 -1.71478e-14 0 0 0 0)
(2.71051e-14 -2.50951e-13 0 -1.0842e-13 -1.63675e-14 0 0 0 0)
(0 -1.86648e-13 0 -8.13152e-14 -1.04879e-14 0 0 0 0)
(2.71051e-14 -1.48002e-13 0 -5.42101e-14 6.37628e-15 0 0 0 0)
(-5.42101e-14 -1.20284e-13 0 -5.42101e-14 1.08091e-14 0 0 0 0)
(2.71051e-14 -1.09025e-13 0 -2.71051e-14 -2.33808e-15 0 0 0 0)
(-2.71051e-14 -1.0335e-13 0 2.71051e-14 -6.27249e-15 0 0 0 0)
(-4.50031e-09 6.86552e-07 0 -1.27711e-09 5.14007e-09 0 0 0 0)
(5.17186e-09 -8.49372e-07 0 2.6441e-10 -1.24332e-09 0 0 0 0)
(-1.00652e-09 2.01452e-07 0 -1.04598e-10 2.94953e-10 0 0 0 0)
(3.93484e-10 -4.77884e-08 0 2.43132e-11 -7.366e-11 0 0 0 0)
(-8.29415e-11 1.13348e-08 0 -7.20994e-12 1.49613e-11 0 0 0 0)
(2.55872e-11 -2.68902e-09 0 1.46367e-12 -5.89113e-12 0 0 0 0)
(-5.61075e-12 6.36967e-10 0 -1.27394e-12 -3.79336e-13 0 0 0 0)
(2.6563e-12 -1.52032e-10 0 -6.23416e-13 -1.20673e-12 0 0 0 0)
(2.71051e-13 3.514e-11 0 -7.31836e-13 -6.23088e-13 0 0 0 0)
(6.23416e-13 -9.14395e-12 0 -6.23416e-13 -4.85299e-13 0 0 0 0)
(2.71051e-13 1.49396e-12 0 -5.42101e-13 -3.16881e-13 0 0 0 0)
(2.1684e-13 -9.09347e-13 0 -3.79471e-13 -2.12413e-13 0 0 0 0)
(1.35525e-13 -2.37745e-13 0 -2.98156e-13 -1.36222e-13 0 0 0 0)
(8.13152e-14 -3.11609e-13 0 -2.1684e-13 -8.62621e-14 0 0 0 0)
(1.0842e-13 -2.18311e-13 0 -1.35525e-13 -5.50684e-14 0 0 0 0)
(0 -1.78009e-13 0 -1.35525e-13 -3.96759e-14 0 0 0 0)
(2.71051e-14 -1.48666e-13 0 -5.42101e-14 -3.31641e-14 0 0 0 0)
(5.42101e-14 -1.30993e-13 0 0 -2.43985e-14 0 0 0 0)
(0 -1.08672e-13 0 0 -7.33838e-15 0 0 0 0)
(0 -9.01318e-14 0 -2.71051e-14 -1.29447e-15 0 0 0 0)
(3.85193e-09 -6.84693e-07 0 1.39496e-09 -4.81925e-09 0 0 0 0)
(-4.44461e-09 8.47075e-07 0 -2.8051e-10 1.14383e-09 0 0 0 0)
(8.57983e-10 -2.00899e-07 0 1.13624e-10 -2.73937e-10 0 0 0 0)
(-3.2957e-10 4.7658e-08 0 -2.45843e-11 6.29088e-11 0 0 0 0)
(7.31023e-11 -1.13036e-08 0 7.5081e-12 -1.70433e-11 0 0 0 0)
(-1.84314e-11 2.68066e-09 0 -2.30393e-12 2.15631e-12 0 0 0 0)
(7.02021e-12 -6.36379e-10 0 2.1684e-13 -2.08861e-12 0 0 0 0)
(-4.87891e-13 1.50314e-10 0 -5.14996e-13 -7.5796e-13 0 0 0 0)
(1.16552e-12 -3.62845e-11 0 -3.52366e-13 -7.88735e-13 0 0 0 0)
(3.79471e-13 8.01974e-12 0 -3.25261e-13 -5.37924e-13 0 0 0 0)
(4.87891e-13 -2.40237e-12 0 -2.1684e-13 -4.18016e-13 0 0 0 0)
(3.25261e-13 1.53844e-13 0 -2.1684e-13 -2.97699e-13 0 0 0 0)
(2.1684e-13 -3.86341e-13 0 -1.89735e-13 -2.12554e-13 0 0 0 0)
(1.89735e-13 -2.08203e-13 0 -8.13152e-14 -1.47893e-13 0 0 0 0)
(2.71051e-14 -2.04365e-13 0 -8.13152e-14 -1.09408e-13 0 0 0 0)
(1.35525e-13 -1.64743e-13 0 0 -8.15219e-14 0 0 0 0)
(1.35525e-13 -1.32724e-13 0 -2.71051e-14 -6.62558e-14 0 0 0 0)
(0 -9.4458e-14 0 -5.42101e-14 -4.26391e-14 0 0 0 0)
(2.71051e-14 -8.59207e-14 0 0 -1.23262e-14 0 0 0 0)
(-2.71051e-14 -9.47172e-14 0 2.71051e-14 3.83682e-15 0 0 0 0)
(-3.38588e-09 6.82877e-07 0 -1.30411e-09 4.49573e-09 0 0 0 0)
(3.89058e-09 -8.44827e-07 0 2.6151e-10 -1.05589e-09 0 0 0 0)
(-7.5062e-10 2.00371e-07 0 -1.02484e-10 2.49116e-10 0 0 0 0)
(2.87395e-10 -4.75315e-08 0 2.36627e-11 -6.01477e-11 0 0 0 0)
(-6.06611e-11 1.1274e-08 0 -6.28837e-12 1.24752e-11 0 0 0 0)
(1.83501e-11 -2.67406e-09 0 2.03288e-12 -4.522e-12 0 0 0 0)
(-3.87602e-12 6.34052e-10 0 -5.42101e-13 -3.36317e-13 0 0 0 0)
(2.08709e-12 -1.50732e-10 0 2.71051e-14 -1.11046e-12 0 0 0 0)
(4.06576e-13 3.53601e-11 0 -1.89735e-13 -7.00476e-13 0 0 0 0)
(7.04731e-13 -8.77323e-12 0 -1.35525e-13 -5.68785e-13 0 0 0 0)
(4.60786e-13 1.73418e-12 0 -1.0842e-13 -4.24198e-13 0 0 0 0)
(2.71051e-13 -7.03885e-13 0 -1.35525e-13 -3.34561e-13 0 0 0 0)
(2.1684e-13 -8.79383e-14 0 0 -2.57919e-13 0 0 0 0)
(2.1684e-13 -2.08463e-13 0 0 -1.85587e-13 0 0 0 0)
(1.35525e-13 -1.5194e-13 0 0 -1.28079e-13 0 0 0 0)
(8.13152e-14 -1.34856e-13 0 5.42101e-14 -8.92348e-14 0 0 0 0)
(5.42101e-14 -1.09783e-13 0 -5.42101e-14 -5.33441e-14 0 0 0 0)
(2.71051e-14 -7.7063e-14 0 0 -4.31299e-14 0 0 0 0)
(5.42101e-14 -6.2196e-14 0 0 -2.8788e-14 0 0 0 0)
(0 -8.16424e-14 0 0 -3.341e-15 0 0 0 0)
(2.80936e-09 -6.81253e-07 0 1.15169e-09 -4.09277e-09 0 0 0 0)
(-3.24296e-09 8.42828e-07 0 -2.27222e-10 9.53324e-10 0 0 0 0)
(6.20082e-10 -1.99904e-07 0 8.96635e-11 -2.26523e-10 0 0 0 0)
(-2.33429e-10 4.74213e-08 0 -1.96783e-11 5.17166e-11 0 0 0 0)
(5.15267e-11 -1.1248e-08 0 5.77338e-12 -1.34964e-11 0 0 0 0)
(-1.26581e-11 2.66785e-09 0 -1.5992e-12 1.79124e-12 0 0 0 0)
(4.96022e-12 -6.32967e-10 0 4.06576e-13 -1.69687e-12 0 0 0 0)
(-2.71051e-14 1.4995e-10 0 -2.1684e-13 -7.31537e-13 0 0 0 0)
(9.75782e-13 -3.57428e-11 0 0 -7.71345e-13 0 0 0 0)
(4.87891e-13 8.29602e-12 0 -8.13152e-14 -5.78455e-13 0 0 0 0)
(4.87891e-13 -2.16814e-12 0 -1.0842e-13 -4.5116e-13 0 0 0 0)
(3.52366e-13 3.20123e-13 0 0 -3.58338e-13 0 0 0 0)
(2.98156e-13 -2.37367e-13 0 -5.42101e-14 -2.77038e-13 0 0 0 0)
(1.89735e-13 -7.83621e-14 0 -5.42101e-14 -1.97419e-13 0 0 0 0)
(1.6263e-13 -1.08013e-13 0 -2.71051e-14 -1.34402e-13 0 0 0 0)
(5.42101e-14 -9.00088e-14 0 -5.42101e-14 -9.2513e-14 0 0 0 0)
(5.42101e-14 -8.66196e-14 0 0 -4.66366e-14 0 0 0 0)
(8.13152e-14 -6.99019e-14 0 0 -3.41649e-14 0 0 0 0)
(0 -4.61318e-14 0 0 -2.90366e-14 0 0 0 0)
(0 -6.25882e-14 0 -2.71051e-14 -1.33684e-14 0 0 0 0)
(-2.46146e-09 6.79737e-07 0 -9.50168e-10 3.75656e-09 0 0 0 0)
(2.82858e-09 -8.40961e-07 0 1.85805e-10 -8.72835e-10 0 0 0 0)
(-5.4305e-10 1.9947e-07 0 -7.23434e-11 2.05158e-10 0 0 0 0)
(2.03505e-10 -4.73184e-08 0 1.61275e-11 -4.92108e-11 0 0 0 0)
(-4.26091e-11 1.12241e-08 0 -4.44523e-12 1.0088e-11 0 0 0 0)
(1.29562e-11 -2.66226e-09 0 1.35525e-12 -3.72093e-12 0 0 0 0)
(-2.43945e-12 6.3153e-10 0 -3.52366e-13 -3.95185e-13 0 0 0 0)
(1.68051e-12 -1.49806e-10 0 1.35525e-13 -9.90164e-13 0 0 0 0)
(4.87891e-13 3.55131e-11 0 -8.13152e-14 -6.79425e-13 0 0 0 0)
(6.77626e-13 -8.45305e-12 0 -5.42101e-14 -5.97681e-13 0 0 0 0)
(4.33681e-13 1.9543e-12 0 -5.42101e-14 -4.61083e-13 0 0 0 0)
(4.06576e-13 -5.29763e-13 0 -2.71051e-14 -3.52242e-13 0 0 0 0)
(2.1684e-13 7.29802e-14 0 -1.0842e-13 -2.72874e-13 0 0 0 0)
(1.89735e-13 -6.58266e-14 0 -8.13152e-14 -2.02796e-13 0 0 0 0)
(1.6263e-13 -4.7034e-14 0 -1.0842e-13 -1.43708e-13 0 0 0 0)
(8.13152e-14 -4.70913e-14 0 -2.71051e-14 -9.85072e-14 0 0 0 0)
(1.0842e-13 -5.14351e-14 0 -5.42101e-14 -6.62726e-14 0 0 0 0)
(2.71051e-14 -5.94631e-14 0 -2.71051e-14 -4.04556e-14 0 0 0 0)
(0 -4.13995e-14 0 0 -3.64178e-14 0 0 0 0)
(5.42101e-14 -3.92374e-14 0 0 -2.51826e-14 0 0 0 0)
(2.04505e-09 -6.78369e-07 0 7.45199e-10 -3.39958e-09 0 0 0 0)
(-2.36519e-09 8.39277e-07 0 -1.44118e-10 7.88649e-10 0 0 0 0)
(4.50405e-10 -1.9908e-07 0 5.53756e-11 -1.87255e-10 0 0 0 0)
(-1.65531e-10 4.72263e-08 0 -1.2387e-11 4.24558e-11 0 0 0 0)
(3.67002e-11 -1.12025e-08 0 3.36103e-12 -1.13153e-11 0 0 0 0)
(-8.51099e-12 2.65737e-09 0 -8.94467e-13 1.25042e-12 0 0 0 0)
(3.7405e-12 -6.30236e-10 0 4.87891e-13 -1.55346e-12 0 0 0 0)
(1.89735e-13 1.49666e-10 0 5.42101e-14 -7.18993e-13 0 0 0 0)
(8.67362e-13 -3.53503e-11 0 1.6263e-13 -7.30143e-13 0 0 0 0)
(4.87891e-13 8.51436e-12 0 1.35525e-13 -5.48048e-13 0 0 0 0)
(4.60786e-13 -1.9227e-12 0 5.42101e-14 -4.46768e-13 0 0 0 0)
(3.52366e-13 5.08332e-13 0 8.13152e-14 -3.31657e-13 0 0 0 0)
(2.71051e-13 -8.7921e-14 0 0 -2.64194e-13 0 0 0 0)
(2.1684e-13 5.08041e-14 0 0 -2.13371e-13 0 0 0 0)
(1.89735e-13 -3.72365e-15 0 5.42101e-14 -1.53835e-13 0 0 0 0)
(8.13152e-14 -1.25734e-14 0 0 -1.07291e-13 0 0 0 0)
(8.13152e-14 -2.8568e-14 0 5.42101e-14 -9.08775e-14 0 0 0 0)
(1.35525e-13 -4.0047e-14 0 2.71051e-14 -5.65711e-14 0 0 0 0)
(0 -3.08588e-14 0 0 -3.84575e-14 0 0 0 0)
(0 -9.87833e-16 0 0 -2.10195e-14 0 0 0 0)
(-1.86038e-09 6.77127e-07 0 -5.81403e-10 3.14067e-09 0 0 0 0)
(2.13872e-09 -8.37748e-07 0 1.10724e-10 -7.31247e-10 0 0 0 0)
(-4.11292e-10 1.98724e-07 0 -4.31241e-11 1.71403e-10 0 0 0 0)
(1.51544e-10 -4.71425e-08 0 9.26993e-12 -4.17879e-11 0 0 0 0)
(-3.10624e-11 1.11829e-08 0 -2.49366e-12 8.04483e-12 0 0 0 0)
(9.97466e-12 -2.6525e-09 0 1.0571e-12 -3.45962e-12 0 0 0 0)
(-1.49078e-12 6.2956e-10 0 1.35525e-13 -5.25937e-13 0 0 0 0)
(1.35525e-12 -1.48983e-10 0 4.87891e-13 -9.71514e-13 0 0 0 0)
(5.96311e-13 3.56841e-11 0 3.52366e-13 -6.45192e-13 0 0 0 0)
(5.14996e-13 -8.16967e-12 0 3.52366e-13 -5.19759e-13 0 0 0 0)
(4.60786e-13 2.17069e-12 0 2.43945e-13 -3.9849e-13 0 0 0 0)
(2.71051e-13 -3.4719e-13 0 1.89735e-13 -3.00466e-13 0 0 0 0)
(2.1684e-13 1.91266e-13 0 2.1684e-13 -2.13809e-13 0 0 0 0)
(1.35525e-13 4.45328e-14 0 1.35525e-13 -1.80243e-13 0 0 0 0)
(1.6263e-13 5.90462e-14 0 8.13152e-14 -1.44962e-13 0 0 0 0)
(1.35525e-13 1.5866e-14 0 2.71051e-14 -9.96716e-14 0 0 0 0)
(5.42101e-14 -7.15534e-16 0 0 -8.19909e-14 0 0 0 0)
(2.71051e-14 -7.04301e-15 0 0 -6.08056e-14 0 0 0 0)
(5.42101e-14 -5.84798e-15 0 0 -2.77288e-14 0 0 0 0)
(0 2.02396e-14 0 2.71051e-14 -8.82345e-16 0 0 0 0)
(1.57437e-09 -6.7596e-07 0 4.17689e-10 -2.87321e-09 0 0 0 0)
(-1.82688e-09 8.36308e-07 0 -7.9987e-11 6.70828e-10 0 0 0 0)
(3.48923e-10 -1.98391e-07 0 2.91379e-11 -1.60781e-10 0 0 0 0)
(-1.24927e-10 4.70629e-08 0 -6.69495e-12 3.56152e-11 0 0 0 0)
(2.85145e-11 -1.11642e-08 0 2.00577e-12 -1.0487e-11 0 0 0 0)
(-5.85469e-12 2.6488e-09 0 0 6.75588e-13 0 0 0 0)
(3.08998e-12 -6.27748e-10 0 6.50521e-13 -1.58796e-12 0 0 0 0)
(4.06576e-13 1.49547e-10 0 5.14996e-13 -7.10692e-13 0 0 0 0)
(7.58942e-13 -3.48986e-11 0 5.42101e-13 -6.30492e-13 0 0 0 0)
(4.06576e-13 8.76106e-12 0 3.52366e-13 -4.51957e-13 0 0 0 0)
(3.52366e-13 -1.70341e-12 0 3.79471e-13 -3.39621e-13 0 0 0 0)
(2.1684e-13 6.93013e-13 0 2.43945e-13 -2.50585e-13 0 0 0 0)
(2.1684e-13 3.23016e-14 0 1.6263e-13 -1.71576e-13 0 0 0 0)
(1.0842e-13 1.19651e-13 0 1.6263e-13 -1.28097e-13 0 0 0 0)
(1.0842e-13 7.6848e-14 0 8.13152e-14 -1.02461e-13 0 0 0 0)
(5.42101e-14 5.03981e-14 0 1.0842e-13 -7.15396e-14 0 0 0 0)
(5.42101e-14 1.02979e-14 0 8.13152e-14 -5.06866e-14 0 0 0 0)
(8.13152e-14 1.4215e-14 0 5.42101e-14 -3.81848e-14 0 0 0 0)
(2.71051e-14 2.90645e-14 0 0 -1.07582e-14 0 0 0 0)
(-2.71051e-14 2.76234e-14 0 0 2.17191e-15 0 0 0 0)
(-1.52268e-09 6.74924e-07 0 -3.72396e-10 2.71749e-09 0 0 0 0)
(1.75015e-09 -8.35036e-07 0 6.97684e-11 -6.39845e-10 0 0 0 0)
(-3.38e-10 1.98088e-07 0 -2.83248e-11 1.48268e-10 0 0 0 0)
(1.24439e-10 -4.69922e-08 0 5.85469e-12 -3.81768e-11 0 0 0 0)
(-2.44217e-11 1.1148e-08 0 -1.24683e-12 6.19129e-12 0 0 0 0)
(8.70072e-12 -2.6436e-09 0 1.24683e-12 -3.54986e-12 0 0 0 0)
(-9.48677e-13 6.28174e-10 0 6.77626e-13 -6.49693e-13 0 0 0 0)
(1.24683e-12 -1.48025e-10 0 7.58942e-13 -8.5685e-13 0 0 0 0)
(3.52366e-13 3.59428e-11 0 5.69206e-13 -4.76562e-13 0 0 0 0)
(3.79471e-13 -7.8788e-12 0 4.60786e-13 -3.57285e-13 0 0 0 0)
(2.43945e-13 2.37206e-12 0 3.52366e-13 -2.39694e-13 0 0 0 0)
(1.89735e-13 -1.79145e-13 0 2.43945e-13 -1.64043e-13 0 0 0 0)
(1.35525e-13 3.13754e-13 0 2.1684e-13 -1.29058e-13 0 0 0 0)
(8.13152e-14 1.13648e-13 0 1.35525e-13 -8.49668e-14 0 0 0 0)
(5.42101e-14 1.15604e-13 0 5.42101e-14 -6.43642e-14 0 0 0 0)
(1.0842e-13 6.76406e-14 0 2.71051e-14 -6.49412e-14 0 0 0 0)
(2.71051e-14 3.26392e-14 0 5.42101e-14 -3.78879e-14 0 0 0 0)
(-2.71051e-14 3.28853e-14 0 0 -5.45434e-15 0 0 0 0)
(-2.71051e-14 3.45088e-14 0 5.42101e-14 1.0592e-14 0 0 0 0)
(0 2.88259e-14 0 -2.71051e-14 -5.25486e-15 0 0 0 0)
(1.27174e-09 -6.73882e-07 0 2.28441e-10 -2.52698e-09 0 0 0 0)
(-1.48281e-09 8.33738e-07 0 -4.61057e-11 5.95285e-10 0 0 0 0)
(2.8501e-10 -1.97789e-07 0 1.48807e-11 -1.47379e-10 0 0 0 0)
(-9.78221e-11 4.69208e-08 0 -3.1984e-12 3.00875e-11 0 0 0 0)
(2.39067e-11 -1.11296e-08 0 1.95156e-12 -1.10776e-11 0 0 0 0)
(-3.93023e-12 2.64196e-09 0 1.11131e-12 2.14938e-13 0 0 0 0)
(2.57498e-12 -6.25055e-10 0 1.32815e-12 -1.51858e-12 0 0 0 0)
(2.98156e-13 1.4972e-10 0 9.75782e-13 -4.60862e-13 0 0 0 0)
(4.60786e-13 -3.4399e-11 0 8.13152e-13 -3.66639e-13 0 0 0 0)
(2.1684e-13 8.99793e-12 0 5.69206e-13 -1.75602e-13 0 0 0 0)
(1.35525e-13 -1.51017e-12 0 3.79471e-13 -1.10279e-13 0 0 0 0)
(2.71051e-14 8.03649e-13 0 2.43945e-13 -7.87422e-14 0 0 0 0)
(1.0842e-13 1.11378e-13 0 2.1684e-13 -5.22286e-14 0 0 0 0)
(-5.42101e-14 1.84345e-13 0 1.35525e-13 -2.60514e-14 0 0 0 0)
(5.42101e-14 9.68736e-14 0 8.13152e-14 -2.43707e-14 0 0 0 0)
(2.71051e-14 7.68744e-14 0 5.42101e-14 -3.33092e-14 0 0 0 0)
(5.42101e-14 6.97848e-14 0 0 -2.42632e-14 0 0 0 0)
(2.71051e-14 6.26949e-14 0 -5.42101e-14 -5.01234e-15 0 0 0 0)
(0 2.9264e-14 0 -2.71051e-14 2.71445e-15 0 0 0 0)
(-2.71051e-14 2.22862e-14 0 2.71051e-14 7.76805e-15 0 0 0 0)
(-1.34034e-09 6.72992e-07 0 -4.07985e-10 2.47542e-09 0 0 0 0)
(1.53661e-09 -8.32656e-07 0 7.92823e-11 -5.87436e-10 0 0 0 0)
(-2.9512e-10 1.97523e-07 0 -3.19298e-11 1.22834e-10 0 0 0 0)
(1.11537e-10 -4.68559e-08 0 9.1073e-12 -3.77e-11 0 0 0 0)
(-2.0112e-11 1.11181e-08 0 5.42101e-13 3.26251e-12 0 0 0 0)
(7.99599e-12 -2.63404e-09 0 3.38813e-12 -3.07756e-12 0 0 0 0)
(-1.00289e-12 6.27498e-10 0 1.92446e-12 -2.99783e-13 0 0 0 0)
(7.04731e-13 -1.46874e-10 0 1.65341e-12 -2.2714e-13 0 0 0 0)
(-8.13152e-14 3.62281e-11 0 1.0571e-12 6.70628e-15 0 0 0 0)
(0 -7.62244e-12 0 7.86047e-13 4.93395e-14 0 0 0 0)
(-5.42101e-14 2.46892e-12 0 4.87891e-13 4.12952e-14 0 0 0 0)
(2.71051e-14 -1.21094e-13 0 3.79471e-13 1.9172e-14 0 0 0 0)
(-2.71051e-14 3.66445e-13 0 1.89735e-13 2.93101e-14 0 0 0 0)
(-5.42101e-14 1.41506e-13 0 1.89735e-13 3.85408e-14 0 0 0 0)
(-2.71051e-14 1.08346e-13 0 1.89735e-13 3.92965e-14 0 0 0 0)
(-2.71051e-14 6.77481e-14 0 5.42101e-14 3.9397e-14 0 0 0 0)
(-8.13152e-14 6.0936e-14 0 2.71051e-14 2.3143e-14 0 0 0 0)
(0 5.9863e-14 0 0 1.7656e-15 0 0 0 0)
(8.13152e-14 4.72892e-14 0 -2.71051e-14 -1.36004e-14 0 0 0 0)
(-2.71051e-14 1.83434e-14 0 0 8.56789e-15 0 0 0 0)
(9.43039e-10 -6.71994e-07 0 3.56974e-11 -2.22313e-09 0 0 0 0)
(-1.10678e-09 8.31386e-07 0 -2.43132e-11 4.99546e-10 0 0 0 0)
(2.14889e-10 -1.97239e-07 0 1.95156e-12 -1.70547e-10 0 0 0 0)
(-6.54045e-11 4.68013e-08 0 1.07336e-11 3.35604e-11 0 0 0 0)
(1.82146e-11 -1.10949e-08 0 4.98733e-12 -1.44149e-11 0 0 0 0)
(-2.54788e-12 2.63839e-09 0 5.25838e-12 3.63333e-12 0 0 0 0)
(8.13152e-13 -6.22205e-10 0 2.52077e-12 -6.13097e-13 0 0 0 0)
(-5.42101e-13 1.50026e-10 0 1.89735e-12 8.90515e-13 0 0 0 0)
(-3.79471e-13 -3.41225e-11 0 1.0571e-12 3.83331e-13 0 0 0 0)
(-3.79471e-13 9.03252e-12 0 7.04731e-13 4.02358e-13 0 0 0 0)
(-2.71051e-13 -1.54034e-12 0 4.60786e-13 2.58151e-13 0 0 0 0)
(-2.1684e-13 7.91663e-13 0 2.43945e-13 1.97843e-13 0 0 0 0)
(-1.35525e-13 1.30747e-13 0 1.35525e-13 1.27237e-13 0 0 0 0)
(-5.42101e-14 1.94331e-13 0 2.71051e-14 8.50028e-14 0 0 0 0)
(-8.13152e-14 9.77298e-14 0 0 6.40424e-14 0 0 0 0)
(-1.0842e-13 6.07209e-14 0 2.71051e-14 5.55316e-14 0 0 0 0)
(0 3.21534e-14 0 2.71051e-14 4.44371e-14 0 0 0 0)
(-5.42101e-14 2.59516e-14 0 8.13152e-14 2.21786e-14 0 0 0 0)
(0 3.60663e-14 0 0 4.79715e-15 0 0 0 0)
(0 2.73186e-14 0 0 -3.21943e-15 0 0 0 0)
(-1.32899e-09 6.71269e-07 0 -1.73098e-09 2.07452e-09 0 0 0 0)
(1.50292e-09 -8.30604e-07 0 9.59058e-10 -5.53431e-10 0 0 0 0)
(-2.60073e-10 1.97057e-07 0 -3.69659e-10 1.01031e-10 0 0 0 0)
(1.14546e-10 -4.66998e-08 0 1.70193e-10 -1.64501e-11 0 0 0 0)
(-2.55601e-11 1.10882e-08 0 -3.91939e-11 7.29524e-12 0 0 0 0)
(5.50233e-12 -2.62024e-09 0 2.13317e-11 2.88752e-12 0 0 0 0)
(-4.39102e-12 6.24755e-10 0 -2.52077e-12 1.9952e-12 0 0 0 0)
(-7.31836e-13 -1.45877e-10 0 2.95445e-12 1.48054e-12 0 0 0 0)
(-1.24683e-12 3.57399e-11 0 2.98156e-13 9.26406e-13 0 0 0 0)
(-6.50521e-13 -7.74762e-12 0 5.96311e-13 6.73365e-13 0 0 0 0)
(-4.87891e-13 2.26441e-12 0 2.71051e-13 4.62968e-13 0 0 0 0)
(-2.98156e-13 -2.52008e-13 0 2.1684e-13 3.28414e-13 0 0 0 0)
(-2.71051e-13 2.53604e-13 0 1.35525e-13 2.1155e-13 0 0 0 0)
(-1.35525e-13 7.83115e-14 0 8.13152e-14 1.22929e-13 0 0 0 0)
(-5.42101e-14 7.88749e-14 0 5.42101e-14 6.94661e-14 0 0 0 0)
(-2.71051e-14 4.81428e-14 0 5.42101e-14 4.46196e-14 0 0 0 0)
(0 2.7583e-14 0 2.71051e-14 3.5238e-14 0 0 0 0)
(-2.71051e-14 2.0223e-14 0 2.71051e-14 2.67445e-14 0 0 0 0)
(0 2.18911e-14 0 0 2.14287e-14 0 0 0 0)
(-2.71051e-14 1.67657e-14 0 -2.71051e-14 4.26434e-15 0 0 0 0)
(1.71141e-10 -6.70473e-07 0 2.17605e-09 -1.16624e-09 0 0 0 0)
(2.54489e-10 8.29412e-07 0 -1.0182e-09 3.70339e-10 0 0 0 0)
(-5.74004e-10 -1.96702e-07 0 4.18638e-10 2.50613e-11 0 0 0 0)
(2.65115e-10 4.67075e-08 0 -1.84125e-10 1.52437e-11 0 0 0 0)
(-1.30673e-10 -1.10756e-08 0 3.90042e-11 1.72956e-11 0 0 0 0)
(3.41253e-11 2.63309e-09 0 -2.78911e-11 2.68867e-12 0 0 0 0)
(-1.75099e-11 -6.23612e-10 0 -6.77626e-13 4.44447e-12 0 0 0 0)
(2.24972e-12 1.48957e-10 0 -5.96311e-12 1.54531e-12 0 0 0 0)
(-2.76472e-12 -3.49297e-11 0 -2.19551e-12 1.36417e-12 0 0 0 0)
(-3.79471e-13 8.56908e-12 0 -1.95156e-12 7.35099e-13 0 0 0 0)
(-6.77626e-13 -1.88529e-12 0 -1.16552e-12 5.4271e-13 0 0 0 0)
(-3.25261e-13 5.40246e-13 0 -7.86047e-13 3.55978e-13 0 0 0 0)
(-2.98156e-13 -7.47386e-14 0 -4.87891e-13 2.54472e-13 0 0 0 0)
(-1.35525e-13 5.22472e-14 0 -2.98156e-13 1.77112e-13 0 0 0 0)
(-1.35525e-13 1.94203e-14 0 -1.89735e-13 1.23914e-13 0 0 0 0)
(-1.0842e-13 2.64928e-14 0 -1.35525e-13 7.88172e-14 0 0 0 0)
(-5.42101e-14 1.42783e-14 0 -8.13152e-14 4.9278e-14 0 0 0 0)
(-2.71051e-14 1.21423e-14 0 -5.42101e-14 3.69559e-14 0 0 0 0)
(-2.71051e-14 1.35862e-14 0 0 1.69127e-14 0 0 0 0)
(0 1.62559e-15 0 0 1.4786e-15 0 0 0 0)
)
;

boundaryField
{
    movingWall
    {
        type            extrapolatedCalculated;
        value           nonuniform List<tensor> 
20
(
(1.71141e-10 -6.70473e-07 0 2.21974e-09 3.51564e-06 0 0 0 0)
(2.54489e-10 8.29412e-07 0 -2.9043e-09 -8.33753e-07 0 0 0 0)
(-5.74004e-10 -1.96702e-07 0 1.20171e-09 1.97995e-07 0 0 0 0)
(2.65115e-10 4.67075e-08 0 -6.08313e-10 -4.69442e-08 0 0 0 0)
(-1.30673e-10 -1.10756e-08 0 1.41398e-10 1.1165e-08 0 0 0 0)
(3.41253e-11 2.63309e-09 0 -8.56204e-11 -2.64183e-09 0 0 0 0)
(-1.75099e-11 -6.23612e-10 0 4.79616e-12 6.32645e-10 0 0 0 0)
(2.24972e-12 1.48957e-10 0 -1.55431e-11 -1.47378e-10 0 0 0 0)
(-2.76472e-12 -3.49297e-11 0 -4.21885e-12 3.68151e-11 0 0 0 0)
(-3.79471e-13 8.56908e-12 0 -4.52971e-12 -7.65874e-12 0 0 0 0)
(-6.77626e-13 -1.88529e-12 0 -2.57572e-12 2.5388e-12 0 0 0 0)
(-3.25261e-13 5.40246e-13 0 -1.90958e-12 -1.17598e-13 0 0 0 0)
(-2.98156e-13 -7.47386e-14 0 -1.15463e-12 3.77814e-13 0 0 0 0)
(-1.35525e-13 5.22472e-14 0 -8.43769e-13 1.81357e-13 0 0 0 0)
(-1.35525e-13 1.94203e-14 0 -5.77316e-13 1.68825e-13 0 0 0 0)
(-1.0842e-13 2.64928e-14 0 -3.10862e-13 1.03676e-13 0 0 0 0)
(-5.42101e-14 1.42783e-14 0 -1.77636e-13 6.28536e-14 0 0 0 0)
(-2.71051e-14 1.21423e-14 0 -8.88178e-14 4.65625e-14 0 0 0 0)
(-2.71051e-14 1.35862e-14 0 0 1.42845e-14 0 0 0 0)
(0 1.62559e-15 0 0 -7.78214e-15 0 0 0 0)
)
;
    }
    fixedWalls
    {
        type            extrapolatedCalculated;
        value           nonuniform List<tensor> 
60
(
(-4.33751e-09 3.6452e-06 0 8.34538e-10 -1.4586e-10 0 0 0 0)
(7.67564e-09 -3.64578e-06 0 -4.30873e-09 -1.49279e-09 0 0 0 0)
(-2.15723e-08 3.63923e-06 0 4.18976e-09 3.55571e-09 0 0 0 0)
(2.44345e-08 -3.63156e-06 0 -1.17468e-09 -4.55149e-09 0 0 0 0)
(-2.6271e-08 3.62102e-06 0 -3.95734e-11 5.17816e-09 0 0 0 0)
(2.42763e-08 -3.61085e-06 0 9.73099e-10 -5.24305e-09 0 0 0 0)
(-2.23786e-08 3.60005e-06 0 -1.27711e-09 5.14007e-09 0 0 0 0)
(1.91679e-08 -3.59029e-06 0 1.39496e-09 -4.81925e-09 0 0 0 0)
(-1.67989e-08 3.58077e-06 0 -1.30411e-09 4.49573e-09 0 0 0 0)
(1.39517e-08 -3.5723e-06 0 1.15169e-09 -4.09277e-09 0 0 0 0)
(-1.21923e-08 3.5644e-06 0 -9.50168e-10 3.75656e-09 0 0 0 0)
(1.01512e-08 -3.55728e-06 0 7.45199e-10 -3.39958e-09 0 0 0 0)
(-9.21156e-09 3.5508e-06 0 -5.81403e-10 3.14067e-09 0 0 0 0)
(7.82547e-09 -3.54471e-06 0 4.17689e-10 -2.87321e-09 0 0 0 0)
(-7.54081e-09 3.53931e-06 0 -3.72396e-10 2.71749e-09 0 0 0 0)
(6.33587e-09 -3.53384e-06 0 2.28441e-10 -2.52698e-09 0 0 0 0)
(-6.62705e-09 3.5292e-06 0 -4.07985e-10 2.47542e-09 0 0 0 0)
(4.70406e-09 -3.52394e-06 0 3.56974e-11 -2.22313e-09 0 0 0 0)
(-6.48441e-09 3.52031e-06 0 -1.73098e-09 2.07452e-09 0 0 0 0)
(-2.21974e-09 -3.51564e-06 0 2.17605e-09 -1.16624e-09 0 0 0 0)
(0 -5.15205e-15 0 0 1.0925e-14 0 0 0 0)
(0 -3.85479e-14 0 0 9.90037e-15 0 0 0 0)
(0 -4.47535e-14 0 2.71051e-14 6.0899e-15 0 0 0 0)
(-8.88178e-14 -6.29075e-14 0 -2.71051e-14 1.54906e-14 0 0 0 0)
(8.88178e-14 -1.06716e-13 0 0 9.34172e-15 0 0 0 0)
(-8.88178e-14 -1.00274e-13 0 2.71051e-14 -6.27249e-15 0 0 0 0)
(0 -8.16259e-14 0 -2.71051e-14 -1.29447e-15 0 0 0 0)
(-4.44089e-14 -9.50965e-14 0 2.71051e-14 3.83682e-15 0 0 0 0)
(-4.44089e-14 -9.69732e-14 0 0 -3.341e-15 0 0 0 0)
(0 -8.17325e-14 0 -2.71051e-14 -1.33684e-14 0 0 0 0)
(0 -4.34994e-14 0 0 -2.51826e-14 0 0 0 0)
(0 1.8998e-14 0 0 -2.10195e-14 0 0 0 0)
(0 4.05786e-14 0 2.71051e-14 -8.82345e-16 0 0 0 0)
(-4.44089e-14 2.25274e-14 0 0 2.17191e-15 0 0 0 0)
(0 3.1891e-14 0 -2.71051e-14 -5.25486e-15 0 0 0 0)
(0 4.35468e-14 0 2.71051e-14 7.76805e-15 0 0 0 0)
(-4.44089e-14 8.1879e-16 0 0 8.56789e-15 0 0 0 0)
(-4.44089e-14 9.27524e-15 0 0 -3.21943e-15 0 0 0 0)
(-4.44089e-14 1.36965e-14 0 -2.71051e-14 4.26434e-15 0 0 0 0)
(0 -7.78214e-15 0 0 1.4786e-15 0 0 0 0)
(-2.10986e-10 6.94963e-07 0 -4.33751e-09 3.6452e-06 0 0 0 0)
(7.59999e-10 -8.59876e-07 0 3.49365e-09 -8.65345e-07 0 0 0 0)
(-6.96681e-10 2.04141e-07 0 -1.29763e-09 2.05693e-07 0 0 0 0)
(2.92599e-10 -4.85168e-08 0 7.06901e-10 -4.87829e-08 0 0 0 0)
(-1.50162e-10 1.15088e-08 0 -1.27187e-10 1.16261e-08 0 0 0 0)
(3.29326e-11 -2.74116e-09 0 1.06271e-10 -2.74769e-09 0 0 0 0)
(-2.08709e-11 6.48771e-10 0 4.52971e-12 6.61497e-10 0 0 0 0)
(1.13841e-12 -1.5555e-10 0 2.27818e-11 -1.52608e-10 0 0 0 0)
(-3.63208e-12 3.63088e-11 0 9.05942e-12 3.92958e-11 0 0 0 0)
(-1.00289e-12 -9.04996e-12 0 8.21565e-12 -7.37232e-12 0 0 0 0)
(-1.13841e-12 1.88698e-12 0 5.10703e-12 3.09594e-12 0 0 0 0)
(-6.50521e-13 -6.26396e-13 0 3.68594e-12 1.7559e-13 0 0 0 0)
(-4.60786e-13 3.52632e-14 0 2.57572e-12 5.90356e-13 0 0 0 0)
(-3.52366e-13 -7.90737e-14 0 1.77636e-12 3.16643e-13 0 0 0 0)
(-2.71051e-13 -2.75821e-14 0 1.19904e-12 2.74062e-13 0 0 0 0)
(-1.6263e-13 -2.88206e-14 0 6.66134e-13 2.06314e-13 0 0 0 0)
(-1.35525e-13 -2.42494e-14 0 4.44089e-13 1.58779e-13 0 0 0 0)
(-1.0842e-13 -2.83101e-14 0 1.33227e-13 1.09317e-13 0 0 0 0)
(-5.42101e-14 -2.60411e-14 0 4.44089e-14 4.55388e-14 0 0 0 0)
(0 -1.26727e-14 0 0 5.15205e-15 0 0 0 0)
)
;
    }
    frontAndBack
    {
        type            empty;
    }
}


// ************************************************************************* //
