/*--------------------------------*- C++ -*----------------------------------*\
| =========                 |                                                 |
| \\      /  F ield         | OpenFOAM: The Open Source CFD Toolbox           |
|  \\    /   O peration     | Version:  2506                                  |
|   \\  /    A nd           | Website:  www.openfoam.com                      |
|    \\/     M anipulation  |                                                 |
\*---------------------------------------------------------------------------*/
FoamFile
{
    version     2.0;
    format      ascii;
    arch        "LSB;label=32;scalar=64";
    class       volScalarField;
    location    "4.625";
    object      Lambda2Field;
}
// * * * * * * * * * * * * * * * * * * * * * * * * * * * * * * * * * * * * * //

dimensions      [0 0 -2 0 0 0 0];

internalField   nonuniform List<scalar> 
400
(
5.79994e-16
-3.81424e-16
-3.60562e-17
-7.26157e-18
-1.59628e-19
-8.29479e-20
3.96134e-21
-1.36283e-21
1.68113e-22
-3.10862e-23
5.37073e-24
-6.1251e-25
2.51147e-25
5.04693e-26
5.06112e-26
1.78556e-26
1.44234e-26
5.87165e-27
2.83144e-28
0
2.99601e-15
1.80811e-16
2.21771e-17
-4.12002e-18
-5.34989e-20
-4.46055e-20
6.36966e-22
-4.72826e-22
3.69533e-23
-5.58272e-24
1.79138e-24
2.59984e-25
2.47917e-25
1.11287e-25
4.83994e-26
2.30484e-26
1.59044e-26
0
2.06538e-27
9.80174e-29
2.91935e-15
6.9268e-16
6.49661e-17
4.0728e-18
1.34541e-19
3.57381e-20
-1.51104e-21
4.84111e-22
-4.81795e-23
1.00251e-23
-5.06773e-25
5.40296e-25
1.55064e-25
8.49168e-26
3.88813e-26
2.14103e-26
6.57259e-27
7.34684e-28
5.79723e-28
-1.41634e-27
8.34084e-16
1.85773e-16
1.57514e-17
7.36694e-19
8.83444e-20
-6.27776e-21
2.07699e-21
-3.19869e-22
5.75161e-23
-7.60273e-24
2.04094e-24
8.70679e-26
2.04407e-25
7.01023e-26
3.65707e-26
2.25842e-26
3.49357e-27
0
-1.55171e-27
2.12614e-27
0
0
-9.74401e-19
0
-2.05205e-20
3.87425e-21
-1.0923e-21
2.13913e-22
-3.86474e-23
8.05025e-24
-7.32681e-25
4.27374e-25
8.65165e-26
8.28921e-26
3.75176e-26
1.63242e-26
4.60686e-27
0
3.07891e-27
0
-6.42576e-16
-1.42326e-16
-1.63594e-17
-7.1169e-19
-5.30489e-20
-6.86255e-21
4.06258e-22
-1.74417e-22
3.04471e-23
-4.93106e-24
1.26446e-24
1.67877e-26
1.12451e-25
5.49012e-26
2.74761e-26
1.51773e-26
8.06385e-27
6.63743e-27
2.96059e-27
-2.06663e-27
-8.50382e-16
-1.97834e-16
-2.00585e-17
-1.00706e-18
-7.48438e-20
-3.28114e-21
-7.79975e-22
9.62352e-23
-2.53285e-23
5.936e-24
-7.09462e-25
3.9019e-25
8.9252e-26
7.41816e-26
3.26192e-26
2.41247e-26
8.79388e-27
5.95287e-28
0
2.44303e-27
-9.31895e-16
-2.17859e-16
-2.20909e-17
-1.06302e-18
-7.95248e-20
-5.83634e-21
-8.87093e-23
-7.68367e-23
1.34075e-23
-2.31914e-24
6.95667e-25
5.5265e-26
1.18482e-25
3.88023e-26
1.73526e-26
6.64582e-27
7.98733e-27
5.12058e-27
1.51936e-28
-1.83263e-27
-8.70332e-16
-2.05794e-16
-1.99715e-17
-1.04213e-18
-6.72155e-20
-5.09932e-21
-3.28697e-22
0
-6.21839e-24
1.51251e-24
0
1.68863e-25
4.70198e-26
3.44425e-26
1.64041e-26
0
8.79696e-27
7.34684e-28
8.28751e-28
0
-7.67844e-16
-1.80992e-16
-1.75396e-17
-8.78681e-19
-6.2284e-20
-4.10619e-21
-2.32745e-22
-3.19801e-23
5.94974e-25
-3.39981e-25
4.38615e-25
1.24162e-25
8.96179e-26
4.02475e-26
2.09915e-26
7.81812e-27
2.17497e-27
1.16724e-27
0
1.69646e-27
-6.31753e-16
-1.48254e-16
-1.41354e-17
-7.21714e-19
-4.80781e-20
-3.44018e-21
-2.16578e-22
-1.74784e-23
-2.42614e-24
8.15464e-25
8.21364e-26
1.38434e-25
3.91072e-26
4.13522e-26
2.57514e-26
7.88857e-27
7.18037e-27
2.34643e-27
0
6.34164e-28
-4.93963e-16
-1.1536e-16
-1.08213e-17
-5.57592e-19
-3.6305e-20
-2.30449e-21
-2.93495e-22
8.1494e-24
-4.99672e-24
1.39195e-24
9.53714e-26
1.51331e-25
6.97986e-26
4.55271e-26
2.34633e-26
6.61216e-27
5.06348e-27
2.11481e-27
0
0
-3.8382e-16
-8.81848e-17
-8.40062e-18
-4.14042e-19
-2.69215e-20
-2.70446e-21
8.55979e-23
-7.08507e-23
1.29294e-23
-2.60856e-24
6.88325e-25
7.59421e-27
8.71886e-26
2.44024e-26
2.58154e-26
1.03645e-26
2.93874e-27
7.34684e-28
7.68889e-28
5.48597e-28
-2.74086e-16
-6.35563e-17
-5.65894e-18
-2.99477e-19
-2.15798e-20
4.56419e-25
-3.98816e-22
7.71812e-23
-1.83426e-23
3.2524e-24
-5.22233e-25
2.16077e-25
3.46917e-26
3.12138e-26
1.67472e-26
8.4029e-27
3.40651e-27
2.22868e-27
1.15739e-28
4.71719e-30
-2.43955e-16
-5.51961e-17
-5.49657e-18
-2.5964e-19
-1.33032e-20
-3.22043e-21
4.26089e-22
-1.10788e-22
2.0583e-23
-3.48644e-24
8.93286e-25
-7.7021e-27
8.46906e-26
2.20143e-26
9.20563e-27
6.05077e-27
2.50406e-27
2.97499e-29
1.98292e-27
-7.53715e-28
-1.47557e-16
-3.62414e-17
-2.862e-18
-1.40502e-19
-2.11485e-20
2.93607e-21
-8.23535e-22
1.46183e-22
-2.77593e-23
5.15251e-24
-5.54697e-25
1.96781e-25
2.6879e-26
2.56621e-26
8.47122e-27
4.90205e-27
5.88702e-28
-2.66402e-27
-7.85835e-28
6.64411e-28
-2.68443e-16
-6.36537e-17
-6.21977e-18
-4.1429e-19
6.03777e-21
-8.86055e-21
1.20768e-21
-2.42345e-22
3.82966e-23
-5.98916e-24
1.20627e-24
-4.52171e-26
7.02622e-26
2.83341e-26
2.12918e-26
4.40732e-27
2.18727e-27
0
0
7.34088e-29
-1.90461e-17
-1.89887e-17
-3.38747e-19
5.03472e-19
-5.50023e-20
1.38802e-20
-1.56777e-21
2.84947e-22
-3.59239e-23
6.5095e-24
-6.36296e-25
2.32265e-25
3.39087e-26
8.2061e-27
4.10143e-27
4.7296e-27
8.7152e-28
2.60215e-27
0
0
-1.15765e-15
-7.94338e-16
-7.27763e-17
-7.93484e-18
-4.33935e-19
-5.58639e-20
-1.55558e-21
-4.28795e-22
1.15143e-23
-4.16657e-24
8.28108e-25
3.42512e-26
7.91233e-26
2.14795e-26
7.21455e-27
3.34451e-27
7.47639e-28
1.26341e-27
0
0
-1.45762e-15
-8.44372e-16
-8.20174e-17
-8.52972e-18
-4.14919e-19
-7.22753e-20
4.42329e-22
-8.83189e-22
7.85494e-23
-1.61827e-23
2.49187e-24
-2.97938e-25
1.0122e-25
2.78931e-27
1.16699e-26
2.6217e-27
1.26728e-27
7.64501e-29
2.8604e-28
0
)
;

boundaryField
{
    movingWall
    {
        type            calculated;
        value           nonuniform List<scalar> 
20
(
0
0
0
0
0
0
0
0
1.55007e-22
0
5.31514e-24
-9.2585e-25
1.75192e-25
-1.11943e-26
7.15546e-27
2.51301e-27
4.02404e-28
0
2.04047e-28
0
)
;
    }
    fixedWalls
    {
        type            calculated;
        value           nonuniform List<scalar> 
60
(
3.04208e-15
1.57109e-14
1.52601e-14
4.28663e-15
0
-2.92437e-15
-4.09685e-15
-4.6409e-15
-4.3875e-15
-3.91955e-15
-3.23813e-15
-2.54783e-15
-1.9796e-15
-1.41935e-15
-1.26116e-15
-7.67133e-16
-1.39594e-15
-1.03667e-16
-6.05155e-15
-7.64528e-15
0
0
-1.17596e-27
1.94507e-27
8.72677e-29
0
2.21248e-27
-6.05442e-28
1.11623e-29
2.21536e-27
0
0
1.09989e-27
4.71719e-30
-8.36793e-28
1.18034e-27
7.34088e-29
1.03648e-29
0
0
0
0
0
0
0
0
3.37434e-21
0
3.42129e-22
-2.00001e-23
1.09328e-23
-1.88568e-24
3.03152e-25
-1.63015e-26
4.03963e-26
7.25025e-27
7.59819e-27
7.98328e-27
9.17324e-28
0
)
;
    }
    frontAndBack
    {
        type            empty;
    }
}


// ************************************************************************* //
