/*--------------------------------*- C++ -*----------------------------------*\
| =========                 |                                                 |
| \\      /  F ield         | OpenFOAM: The Open Source CFD Toolbox           |
|  \\    /   O peration     | Version:  2506                                  |
|   \\  /    A nd           | Website:  www.openfoam.com                      |
|    \\/     M anipulation  |                                                 |
\*---------------------------------------------------------------------------*/
FoamFile
{
    version     2.0;
    format      ascii;
    arch        "LSB;label=32;scalar=64";
    class       volVectorField;
    location    "4.625";
    object      LambVectorField;
}
// * * * * * * * * * * * * * * * * * * * * * * * * * * * * * * * * * * * * * //

dimensions      [0 1 -2 0 0 0 0];

internalField   nonuniform List<vector> 
400
(
(-6.32559e-15 -6.94129e-07 0)
(-1.86119e-15 8.60321e-07 -0)
(-1.05068e-16 -2.0432e-07 0)
(-5.93545e-18 4.86682e-08 -0)
(-3.34967e-19 -1.15246e-08 0)
(-1.90402e-20 2.77182e-09 -0)
(-1.0629e-21 -6.42726e-10 0)
(-6.27063e-23 1.6436e-10 -0)
(-3.12494e-24 -3.18094e-11 0)
(-2.3374e-25 1.2682e-11 -0)
(3.64672e-27 4.71161e-13 0)
(1.00078e-27 2.2798e-12 0)
(1.66813e-27 1.13025e-12 0)
(6.84836e-28 8.6512e-13 0)
(3.53178e-28 5.15473e-13 0)
(1.6865e-28 3.26976e-13 0)
(7.41815e-29 1.8688e-13 0)
(2.25521e-29 8.25202e-14 0)
(9.13636e-30 8.02512e-14 0)
(1.63226e-31 1.26727e-14 0)
(-6.29363e-15 6.9051e-07 -0)
(-1.86278e-15 -8.59903e-07 0)
(-1.04872e-16 2.04299e-07 -0)
(-5.93073e-18 -4.8536e-08 0)
(-3.32342e-19 1.15312e-08 -0)
(-1.89772e-20 -2.73947e-09 0)
(-1.03527e-21 6.50877e-10 -0)
(-6.31929e-23 -1.54584e-10 0)
(-2.81208e-24 3.67791e-11 -0)
(-2.77376e-25 -8.72602e-12 0)
(3.92736e-27 2.11504e-12 0)
(-2.38796e-27 -3.96083e-13 0)
(4.02747e-28 1.29617e-13 0)
(-9.36311e-29 -3.65125e-14 0)
(1.09816e-29 5.94883e-15 0)
(4.56658e-29 3.21439e-14 0)
(1.98503e-30 2.02043e-15 0)
(4.02096e-29 6.8464e-14 0)
(6.54912e-30 2.1989e-14 0)
(3.79895e-30 3.94207e-14 0)
(-6.27379e-15 -6.89573e-07 0)
(-1.85301e-15 8.57702e-07 -0)
(-1.0443e-16 -2.03568e-07 0)
(-5.87348e-18 4.83136e-08 -0)
(-3.32791e-19 -1.14663e-08 0)
(-1.84782e-20 2.72153e-09 -0)
(-1.0833e-21 -6.45805e-10 0)
(-5.45847e-23 1.53343e-10 -0)
(-4.10619e-24 -3.63047e-11 0)
(-6.37737e-26 8.75601e-12 -0)
(-3.00826e-26 -1.93898e-12 0)
(3.73954e-27 6.08726e-13 0)
(-5.6745e-29 -1.00742e-14 0)
(6.8031e-28 1.78816e-13 0)
(3.56735e-28 1.29236e-13 0)
(1.70585e-28 8.65889e-14 0)
(1.56383e-28 1.15638e-13 0)
(7.55108e-29 9.28018e-14 0)
(2.97796e-29 7.01794e-14 0)
(9.03204e-30 8.07269e-14 0)
(-6.27573e-15 6.91243e-07 -0)
(-1.84565e-15 -8.56561e-07 0)
(-1.03891e-16 2.03254e-07 -0)
(-5.85529e-18 -4.82284e-08 0)
(-3.28466e-19 1.14438e-08 -0)
(-1.87174e-20 -2.71533e-09 0)
(-1.01475e-21 6.44389e-10 -0)
(-6.37918e-23 -1.52841e-10 0)
(-2.46457e-24 3.63739e-11 -0)
(-3.2742e-25 -8.51405e-12 0)
(1.50506e-26 2.12461e-12 0)
(-4.37406e-27 -4.30389e-13 0)
(1.09543e-27 1.75609e-13 0)
(2.55099e-28 5.22392e-14 0)
(4.27299e-28 1.20464e-13 0)
(2.44073e-28 9.40751e-14 0)
(2.76294e-28 1.54079e-13 0)
(1.32189e-28 1.25458e-13 0)
(6.28792e-29 1.16743e-13 0)
(6.68124e-30 4.24829e-14 0)
(-6.25107e-15 -6.90531e-07 0)
(-1.83478e-15 8.54326e-07 -0)
(-1.03292e-16 -2.02694e-07 0)
(-5.80976e-18 4.80887e-08 -0)
(-3.27862e-19 -1.14086e-08 0)
(-1.82829e-20 2.70705e-09 -0)
(-1.06131e-21 -6.41874e-10 0)
(-5.38695e-23 1.52624e-10 -0)
(-4.07575e-24 -3.59414e-11 0)
(-4.06099e-26 8.7219e-12 -0)
(-3.3027e-26 -1.85769e-12 0)
(5.3041e-27 6.44578e-13 0)
(2.80691e-28 3.86257e-14 0)
(4.49849e-28 8.7655e-14 0)
(2.46305e-28 6.23408e-14 0)
(3.44257e-28 1.19437e-13 0)
(2.77633e-28 1.42858e-13 0)
(1.44618e-28 1.22278e-13 0)
(4.64703e-29 6.44852e-14 0)
(2.63435e-29 9.87424e-14 0)
(-6.22476e-15 6.89563e-07 -0)
(-1.82459e-15 -8.52124e-07 0)
(-1.02678e-16 2.02156e-07 -0)
(-5.7803e-18 -4.79566e-08 0)
(-3.24647e-19 1.13769e-08 -0)
(-1.83999e-20 -2.69877e-09 0)
(-1.00914e-21 6.4044e-10 -0)
(-6.1792e-23 -1.51724e-10 0)
(-2.53789e-24 3.61928e-11 -0)
(-3.11209e-25 -8.36405e-12 0)
(1.55319e-26 2.21446e-12 0)
(-3.68715e-27 -3.52656e-13 0)
(1.99438e-27 2.95652e-13 0)
(5.31026e-28 9.96211e-14 0)
(5.49047e-28 1.42531e-13 0)
(2.97137e-28 1.05332e-13 0)
(1.86238e-28 9.37917e-14 0)
(8.86003e-29 6.60736e-14 0)
(6.41279e-29 8.19197e-14 0)
(3.27033e-29 1.30455e-13 0)
(-6.19055e-15 -6.87829e-07 0)
(-1.81363e-15 8.49637e-07 -0)
(-1.02069e-16 -2.01557e-07 0)
(-5.74117e-18 4.78127e-08 -0)
(-3.2345e-19 -1.1342e-08 0)
(-1.81034e-20 2.69048e-09 -0)
(-1.0389e-21 -6.38241e-10 0)
(-5.43558e-23 1.51408e-10 -0)
(-3.85394e-24 -3.58719e-11 0)
(-6.47694e-26 8.52054e-12 -0)
(-3.25704e-26 -2.03606e-12 0)
(3.88823e-27 5.29876e-13 0)
(-4.17039e-28 -6.04111e-14 0)
(4.70105e-28 9.47686e-14 0)
(3.13532e-28 8.2786e-14 0)
(1.17995e-28 4.24833e-14 0)
(1.8959e-28 9.44559e-14 0)
(1.69083e-28 1.30993e-13 0)
(7.57718e-29 1.08672e-13 0)
(1.28615e-29 6.30268e-14 0)
(-6.15813e-15 6.86088e-07 -0)
(-1.80384e-15 -8.47355e-07 0)
(-1.01505e-16 2.01013e-07 -0)
(-5.71215e-18 -4.76826e-08 0)
(-3.21079e-19 1.13111e-08 -0)
(-1.81341e-20 -2.68297e-09 0)
(-1.0055e-21 6.36596e-10 -0)
(-5.96077e-23 -1.50829e-10 0)
(-2.7435e-24 3.59321e-11 -0)
(-2.70002e-25 -8.345e-12 0)
(8.40341e-27 2.18552e-12 0)
(-3.08827e-27 -3.70684e-13 0)
(1.05842e-27 1.96606e-13 0)
(5.66914e-28 1.26888e-13 0)
(4.06242e-28 1.2305e-13 0)
(3.99369e-28 1.64743e-13 0)
(1.74696e-28 1.05619e-13 0)
(4.41499e-29 4.02479e-14 0)
(6.09548e-29 8.59207e-14 0)
(2.89622e-29 1.21822e-13 0)
(-6.12474e-15 -6.84181e-07 0)
(-1.79426e-15 8.45088e-07 -0)
(-1.00971e-16 -2.00474e-07 0)
(-5.68033e-18 4.75551e-08 -0)
(-3.19769e-19 -1.12803e-08 0)
(-1.79489e-20 2.6761e-09 -0)
(-1.01971e-21 -6.34594e-10 0)
(-5.52654e-23 1.50759e-10 -0)
(-3.53895e-24 -3.55498e-11 0)
(-1.12124e-25 8.63771e-12 -0)
(-2.17734e-26 -1.8426e-12 0)
(2.47862e-27 5.68359e-13 0)
(4.20153e-28 8.79383e-14 0)
(7.25791e-28 2.08463e-13 0)
(4.09204e-28 1.5194e-13 0)
(3.70991e-28 1.89067e-13 0)
(7.47248e-29 5.55731e-14 0)
(6.66127e-29 7.7063e-14 0)
(3.56999e-29 6.2196e-14 0)
(1.97928e-29 8.16424e-14 0)
(-6.09439e-15 6.82405e-07 -0)
(-1.78579e-15 -8.43056e-07 0)
(-1.00492e-16 1.99993e-07 -0)
(-5.65468e-18 -4.7441e-08 0)
(-3.18047e-19 1.12538e-08 -0)
(-1.79221e-20 -2.66945e-09 0)
(-1.00254e-21 6.33374e-10 -0)
(-5.76784e-23 -1.50167e-10 0)
(-2.97942e-24 3.57428e-11 -0)
(-2.23399e-25 -8.37733e-12 0)
(-8.17605e-28 2.05972e-12 -0)
(-1.59602e-27 -3.20123e-13 0)
(5.13624e-28 1.83157e-13 0)
(6.30845e-29 2.4152e-14 0)
(1.63487e-28 8.09077e-14 0)
(5.4838e-29 3.57987e-14 0)
(9.70633e-29 8.66196e-14 0)
(4.65301e-29 6.99019e-14 0)
(1.94469e-29 4.61318e-14 0)
(7.25031e-30 3.54832e-14 0)
(-6.06561e-15 -6.80688e-07 0)
(-1.77787e-15 8.41146e-07 -0)
(-1.0005e-16 -1.99542e-07 0)
(-5.62951e-18 4.73346e-08 -0)
(-3.16786e-19 -1.12285e-08 0)
(-1.78175e-20 2.66362e-09 -0)
(-1.00463e-21 -6.31882e-10 0)
(-5.60627e-23 1.49942e-10 -0)
(-3.26884e-24 -3.55944e-11 0)
(-1.57607e-25 8.39884e-12 -0)
(-1.46723e-26 -2.00851e-12 0)
(3.90883e-28 5.02658e-13 0)
(-3.6415e-28 -1.814e-13 0)
(-2.3348e-29 -1.54886e-14 0)
(-8.28204e-29 -6.13862e-14 0)
(2.07276e-29 1.99863e-14 0)
(-2.43715e-30 -2.77499e-15 0)
(1.6915e-29 3.2358e-14 0)
(1.17419e-29 4.13995e-14 0)
(4.26701e-30 3.92374e-14 0)
(-6.03949e-15 6.79114e-07 -0)
(-1.77076e-15 -8.39421e-07 0)
(-9.9652e-17 1.99135e-07 -0)
(-5.60731e-18 -4.72387e-08 0)
(-3.15563e-19 1.12059e-08 -0)
(-1.7748e-20 -2.65826e-09 0)
(-1.00084e-21 6.30724e-10 -0)
(-5.59837e-23 -1.49612e-10 0)
(-3.20154e-24 3.5513e-11 -0)
(-1.7336e-25 -8.37883e-12 0)
(-9.89995e-27 1.97691e-12 -0)
(-6.24819e-28 -4.27017e-13 0)
(6.64129e-30 8.7921e-14 0)
(-2.96701e-29 -5.08041e-14 0)
(3.38089e-29 5.79338e-14 0)
(6.87481e-30 1.25734e-14 0)
(3.78994e-29 8.27781e-14 0)
(1.75329e-29 6.71521e-14 0)
(1.77047e-30 3.08588e-14 0)
(-4.69172e-32 9.87833e-16 -0)
(-6.01602e-15 -6.77708e-07 0)
(-1.76431e-15 8.37859e-07 -0)
(-9.92888e-17 -1.98767e-07 0)
(-5.58775e-18 4.71518e-08 -0)
(-3.14302e-19 -1.11854e-08 0)
(-1.7717e-20 2.65356e-09 -0)
(-9.90943e-22 -6.29425e-10 0)
(-5.69613e-23 1.49471e-10 -0)
(-2.98674e-24 -3.53317e-11 0)
(-2.06624e-25 8.52204e-12 -0)
(-5.46693e-27 -1.92674e-12 0)
(-1.36322e-27 5.36925e-13 -0)
(-1.6227e-29 2.55742e-14 -0)
(-5.69861e-29 9.09924e-14 -0)
(-4.21283e-30 2.2269e-14 -0)
(-4.02487e-31 1.12391e-14 -0)
(-2.18379e-32 7.15534e-16 -0)
(-3.02615e-31 7.04301e-15 -0)
(-5.90353e-31 5.84798e-15 -0)
(-6.96473e-31 6.86542e-15 -0)
(-5.99391e-15 6.76377e-07 -0)
(-1.75824e-15 -8.36388e-07 0)
(-9.89537e-17 1.9842e-07 -0)
(-5.56757e-18 -4.70696e-08 0)
(-3.13547e-19 1.11662e-08 -0)
(-1.75932e-20 -2.6488e-09 0)
(-1.00045e-21 6.28399e-10 -0)
(-5.43188e-23 -1.49032e-10 0)
(-3.42369e-24 3.54407e-11 -0)
(-1.30273e-25 -8.4087e-12 0)
(-1.87307e-26 2.08288e-12 -0)
(6.92211e-28 -4.49068e-13 -0)
(-2.6881e-28 1.30329e-13 -0)
(-5.23674e-29 4.29796e-14 -0)
(-3.86874e-30 4.46713e-15 -0)
(-2.61067e-29 5.80222e-14 -0)
(-2.57129e-29 7.10172e-14 -0)
(-1.38768e-29 3.99951e-14 -0)
(6.39173e-30 -2.90645e-14 -0)
(1.55571e-30 -2.76234e-14 -0)
(-5.97521e-15 -6.75297e-07 0)
(-1.75291e-15 8.35106e-07 -0)
(-9.86456e-17 -1.98117e-07 0)
(-5.55279e-18 4.69981e-08 -0)
(-3.12116e-19 -1.11492e-08 0)
(-1.7641e-20 2.64485e-09 -0)
(-9.77943e-22 -6.27496e-10 0)
(-5.77572e-23 1.48784e-10 -0)
(-2.76725e-24 -3.53736e-11 0)
(-2.39892e-25 8.33959e-12 -0)
(1.12865e-27 -2.0197e-12 -0)
(-2.1344e-27 4.2309e-13 -0)
(2.27773e-28 -9.69134e-14 -0)
(-4.17253e-29 2.18773e-14 -0)
(7.45192e-29 -6.13938e-14 -0)
(3.04506e-29 -4.05355e-14 -0)
(-1.15919e-29 2.15709e-14 -0)
(1.39702e-29 -3.28853e-14 -0)
(-4.10836e-30 1.97013e-14 -0)
(4.45923e-30 -5.5931e-14 -0)
(-5.9555e-15 6.7411e-07 -0)
(-1.74744e-15 -8.33785e-07 0)
(-9.83533e-17 1.97804e-07 -0)
(-5.53244e-18 -4.6924e-08 0)
(-3.11884e-19 1.11315e-08 -0)
(-1.74466e-20 -2.64084e-09 0)
(-1.00132e-21 6.26383e-10 -0)
(-5.29394e-23 -1.48744e-10 0)
(-3.56942e-24 3.52122e-11 -0)
(-1.00469e-25 -8.42872e-12 0)
(-2.15223e-26 1.88964e-12 -0)
(1.7809e-27 -5.59703e-13 -0)
(-3.53631e-28 1.05463e-13 -0)
(1.00963e-28 -4.88196e-14 -0)
(2.34884e-29 -1.55584e-14 -0)
(2.49161e-29 -2.26643e-14 -0)
(5.17067e-29 -6.97848e-14 -0)
(4.69382e-29 -1.16905e-13 -0)
(6.42578e-30 -5.63691e-14 -0)
(-5.24617e-31 4.81888e-15 -0)
(-5.94142e-15 -6.734e-07 0)
(-1.74298e-15 8.32736e-07 -0)
(-9.80748e-17 -1.97555e-07 0)
(-5.52297e-18 4.6865e-08 -0)
(-3.09998e-19 -1.11175e-08 0)
(-1.75858e-20 2.63743e-09 -0)
(-9.65447e-22 -6.25574e-10 0)
(-5.83417e-23 1.48527e-10 -0)
(-2.62245e-24 -3.5171e-11 0)
(-2.56639e-25 8.40849e-12 -0)
(3.29171e-27 -1.98103e-12 -0)
(-2.9194e-27 5.00565e-13 -0)
(5.07608e-28 -1.76709e-13 -0)
(-1.0455e-28 4.82295e-14 -0)
(-1.18625e-28 8.13892e-14 -0)
(1.46792e-29 -1.3538e-14 -0)
(2.63887e-29 -3.3831e-14 -0)
(2.84312e-29 -5.9863e-14 -0)
(1.34942e-29 -7.43942e-14 -0)
(3.75486e-32 -1.83434e-14 -0)
(-5.92049e-15 6.7203e-07 -0)
(-1.73758e-15 -8.3141e-07 0)
(-9.78312e-17 1.97241e-07 -0)
(-5.49906e-18 -4.67905e-08 0)
(-3.10637e-19 1.10999e-08 -0)
(-1.73147e-20 -2.63313e-09 0)
(-1.00054e-21 6.24726e-10 -0)
(-5.23841e-23 -1.48129e-10 0)
(-3.56376e-24 3.51796e-11 -0)
(-1.03375e-25 -8.32779e-12 0)
(-2.19656e-26 2.00112e-12 -0)
(1.63776e-27 -5.47718e-13 -0)
(-1.4623e-29 4.7787e-15 -0)
(2.81389e-28 -1.67226e-13 -0)
(1.09137e-28 -9.77298e-14 -0)
(2.37121e-29 -3.36159e-14 -0)
(2.5722e-30 -5.04835e-15 -0)
(-2.12514e-29 5.53636e-14 -0)
(9.01652e-30 -3.60663e-14 -0)
(6.33467e-31 -2.73186e-14 -0)
(-5.92292e-15 -6.73e-07 0)
(-1.73637e-15 8.31563e-07 -0)
(-9.76744e-17 -1.97427e-07 0)
(-5.50783e-18 4.687e-08 -0)
(-3.08668e-19 -1.11273e-08 0)
(-1.75175e-20 2.64157e-09 -0)
(-9.64228e-22 -6.27276e-10 0)
(-5.7136e-23 1.48832e-10 -0)
(-2.7785e-24 -3.54418e-11 0)
(-2.21096e-25 8.34393e-12 -0)
(-1.83367e-27 -1.99336e-12 0)
(-1.80684e-27 4.68848e-13 -0)
(1.88949e-28 -1.18079e-13 -0)
(-3.95797e-30 3.00362e-15 -0)
(2.0153e-29 -2.46648e-14 -0)
(-3.2095e-30 6.0673e-15 -0)
(1.60426e-31 -4.77962e-16 -0)
(-1.7422e-30 6.88203e-15 -0)
(2.92063e-30 -2.18911e-14 -0)
(1.50219e-30 -4.38708e-14 -0)
(-5.91199e-15 6.72649e-07 -0)
(-1.73093e-15 -8.30431e-07 0)
(-9.75724e-17 1.97121e-07 -0)
(-5.50323e-18 -4.68917e-08 0)
(-3.10237e-19 1.11146e-08 -0)
(-1.75746e-20 -2.66098e-09 0)
(-9.8524e-22 6.22934e-10 -0)
(-5.70795e-23 -1.54921e-10 0)
(-3.01278e-24 3.27342e-11 -0)
(-2.01437e-25 -1.05206e-11 0)
(-4.56837e-27 7.19769e-13 -0)
(-3.89922e-28 -1.32629e-12 0)
(3.90236e-28 -4.13152e-13 -0)
(1.5887e-28 -3.50403e-13 -0)
(8.82766e-29 -2.09156e-13 -0)
(4.19933e-29 -1.62018e-13 -0)
(1.5021e-29 -9.55934e-14 -0)
(7.72383e-30 -6.63524e-14 -0)
(4.85178e-31 -1.35862e-14 -0)
(-3.16264e-32 -1.62559e-15 0)
)
;

boundaryField
{
    movingWall
    {
        type            calculated;
        value           nonuniform List<vector> 
20
(
(0 6.72693e-07 -0)
(0 -8.32317e-07 -0)
(0 1.97904e-07 -0)
(0 -4.73158e-08 -0)
(0 1.1217e-08 -0)
(0 -2.71871e-09 -0)
(0 6.28408e-10 -0)
(0 -1.64501e-10 -0)
(0 3.07109e-11 -0)
(0 -1.30988e-11 -0)
(0 -6.90431e-13 -0)
(0 -2.44983e-12 -0)
(0 -1.07989e-12 -0)
(0 -8.96017e-13 -0)
(0 -5.96736e-13 -0)
(0 -3.37355e-13 -0)
(0 -1.91914e-13 -0)
(0 -1.0096e-13 -0)
(0 -1.35862e-14 -0)
(0 -1.62559e-15 -0)
)
;
    }
    fixedWalls
    {
        type            calculated;
        value           nonuniform List<vector> 
60
(
(0 -3.64436e-06 -0)
(0 3.64147e-06 -0)
(0 -3.63504e-06 -0)
(0 3.63038e-06 -0)
(0 -3.62106e-06 -0)
(0 3.61182e-06 -0)
(0 -3.60133e-06 -0)
(0 3.59168e-06 -0)
(0 -3.58208e-06 -0)
(0 3.57346e-06 -0)
(0 -3.56535e-06 -0)
(0 3.55802e-06 -0)
(0 -3.55138e-06 -0)
(0 3.54513e-06 -0)
(0 -3.53968e-06 -0)
(0 3.53407e-06 -0)
(0 -3.52961e-06 -0)
(0 3.52398e-06 -0)
(0 -3.52204e-06 -0)
(0 3.51782e-06 -0)
(0 5.15205e-15 -0)
(0 3.85479e-14 -0)
(0 7.18586e-14 -0)
(0 3.58024e-14 -0)
(0 1.06716e-13 -0)
(0 1.27379e-13 -0)
(0 5.45209e-14 -0)
(0 1.22202e-13 -0)
(0 9.69732e-14 -0)
(0 5.46274e-14 -0)
(0 4.34994e-14 -0)
(0 -1.8998e-14 -0)
(0 -1.34736e-14 -0)
(0 -2.25274e-14 -0)
(0 -5.8996e-14 -0)
(0 -1.64418e-14 -0)
(0 -8.1879e-16 -0)
(0 -9.27524e-15 -0)
(0 -4.08016e-14 -0)
(0 7.78214e-15 -0)
(0 -6.99301e-07 -0)
(0 8.6337e-07 -0)
(0 -2.05438e-07 -0)
(0 4.92237e-08 -0)
(0 -1.1636e-08 -0)
(0 2.84743e-09 -0)
(0 -6.44241e-10 -0)
(0 1.78332e-10 -0)
(0 -2.72494e-11 -0)
(0 1.72656e-11 -0)
(0 3.22005e-12 -0)
(0 4.31234e-12 -0)
(0 2.54045e-12 -0)
(0 1.85543e-12 -0)
(0 1.22662e-12 -0)
(0 6.94954e-13 -0)
(0 4.68339e-13 -0)
(0 1.61537e-13 -0)
(0 7.04501e-14 -0)
(0 1.26727e-14 -0)
)
;
    }
    frontAndBack
    {
        type            empty;
    }
}


// ************************************************************************* //
