/*--------------------------------*- C++ -*----------------------------------*\
| =========                 |                                                 |
| \\      /  F ield         | OpenFOAM: The Open Source CFD Toolbox           |
|  \\    /   O peration     | Version:  2506                                  |
|   \\  /    A nd           | Website:  www.openfoam.com                      |
|    \\/     M anipulation  |                                                 |
\*---------------------------------------------------------------------------*/
FoamFile
{
    version     2.0;
    format      ascii;
    arch        "LSB;label=32;scalar=64";
    class       volScalarField;
    location    "4.625";
    object      pzeroGrad;
}
// * * * * * * * * * * * * * * * * * * * * * * * * * * * * * * * * * * * * * //

dimensions      [0 2 -2 0 0 0 0];

internalField   nonuniform List<scalar> 
400
(
6.5893e-16
0
1.16751e-12
5.7898e-14
2.42994e-13
6.53342e-14
6.52444e-14
3.43735e-14
2.58426e-14
1.7312e-14
1.23592e-14
8.58888e-15
6.24686e-15
4.73446e-15
3.53926e-15
2.82234e-15
2.22951e-15
1.67791e-15
1.51799e-15
1.51778e-15
0
7.01599e-13
6.94382e-14
8.03662e-14
7.46453e-14
5.50897e-14
4.19433e-14
2.88082e-14
2.0768e-14
1.46323e-14
1.05701e-14
7.56807e-15
5.62569e-15
4.28296e-15
3.06102e-15
2.43449e-15
1.86582e-15
1.47396e-15
1.45504e-15
1.51776e-15
1.07555e-14
0
0
0
4.48252e-14
1.20456e-14
2.34621e-14
1.61605e-14
1.36843e-14
9.91897e-15
7.46207e-15
5.59011e-15
4.40549e-15
3.27817e-15
2.39371e-15
1.83143e-15
1.42615e-15
1.19931e-15
1.24308e-15
1.30823e-15
1.23546e-13
3.64953e-12
0
9.9075e-14
0
0
0
5.76606e-15
5.32878e-15
4.80255e-15
3.90256e-15
3.26089e-15
2.58614e-15
2.001e-15
1.51094e-15
1.2154e-15
1.03972e-15
8.48261e-16
9.5433e-16
1.16398e-15
0
0
0
0
1.15513e-14
0
0
0
0
0
5.01147e-16
7.58989e-16
8.06211e-16
6.96592e-16
5.38418e-16
4.38043e-16
3.75955e-16
5.38931e-16
6.51224e-16
6.84506e-16
3.20824e-13
3.62326e-12
0
8.86613e-14
0
0
0
0
0
0
0
0
0
0
0
0
0
1.70018e-16
1.22948e-16
2.38317e-16
0
0
0
0
0
0
0
0
0
0
0
0
0
0
0
0
0
0
0
0
4.28642e-13
2.76597e-12
0
5.59999e-14
0
0
0
0
0
0
0
0
0
0
0
0
0
0
0
0
0
0
0
0
0
0
0
0
0
0
0
0
0
0
0
0
0
0
0
0
4.43738e-13
1.91069e-12
0
2.46099e-14
0
0
0
0
0
0
0
0
0
0
0
0
0
0
0
0
0
0
0
0
0
0
0
0
0
0
0
0
0
0
0
0
0
0
0
0
3.94176e-13
1.30506e-12
0
2.56915e-15
0
0
0
0
0
0
0
0
0
0
0
0
0
0
0
0
0
0
0
0
0
0
0
0
0
0
0
0
0
0
0
0
0
0
0
0
3.27849e-13
9.4029e-13
0
0
0
0
0
0
0
0
0
0
0
0
0
0
0
0
0
0
0
0
0
0
0
0
0
0
0
0
0
0
0
0
0
0
0
0
0
0
2.83717e-13
6.92418e-13
0
0
0
0
0
0
0
0
0
0
0
0
0
0
0
0
0
1.89237e-16
0
0
0
0
0
0
0
0
0
2.01763e-16
3.76295e-16
2.80549e-16
3.99379e-16
3.87866e-16
1.08892e-16
1.17579e-16
1.88766e-16
0
0
4.62974e-16
2.84281e-13
3.8802e-13
0
0
0
5.86934e-15
8.24798e-15
6.38385e-15
5.25849e-15
3.79113e-15
2.81622e-15
2.12949e-15
1.52582e-15
1.18306e-15
9.12992e-16
6.91808e-16
5.05287e-16
3.41832e-16
2.39422e-16
4.5368e-16
0
0
9.03224e-14
0
6.48686e-14
2.65577e-14
2.44514e-14
1.41792e-14
1.02776e-14
6.73206e-15
4.82541e-15
3.40282e-15
2.64171e-15
1.90357e-15
1.27361e-15
9.66964e-16
7.3315e-16
4.44246e-16
3.40001e-16
6.58403e-16
1.36223e-13
0
9.47741e-13
0
1.73237e-13
2.79735e-14
4.0087e-14
1.76719e-14
1.37464e-14
8.38288e-15
6.03366e-15
4.07481e-15
3.06054e-15
2.19228e-15
1.61254e-15
1.37155e-15
9.89739e-16
5.91698e-16
3.40866e-16
6.3601e-16
)
;

boundaryField
{
    movingWall
    {
        type            zeroGradient;
    }
    fixedWalls
    {
        type            zeroGradient;
    }
    frontAndBack
    {
        type            empty;
    }
}


// ************************************************************************* //
