/*--------------------------------*- C++ -*----------------------------------*\
| =========                 |                                                 |
| \\      /  F ield         | OpenFOAM: The Open Source CFD Toolbox           |
|  \\    /   O peration     | Version:  2506                                  |
|   \\  /    A nd           | Website:  www.openfoam.com                      |
|    \\/     M anipulation  |                                                 |
\*---------------------------------------------------------------------------*/
FoamFile
{
    version     2.0;
    format      ascii;
    arch        "LSB;label=32;scalar=64";
    class       volScalarField;
    location    "4.625";
    object      QField;
}
// * * * * * * * * * * * * * * * * * * * * * * * * * * * * * * * * * * * * * //

dimensions      [0 0 -2 0 0 0 0];

internalField   nonuniform List<scalar> 
400
(
-5.79942e-16
3.82222e-16
3.64784e-17
7.35407e-18
1.78508e-19
8.42238e-20
-4.05327e-21
1.37337e-21
-1.7128e-22
3.15307e-23
-5.54226e-24
6.14937e-25
-2.52282e-25
-5.6097e-26
-5.51505e-26
-2.28996e-26
-1.4751e-26
-7.79596e-27
-8.20051e-28
0
-2.99601e-15
-1.81244e-16
-2.22117e-17
4.13175e-18
5.4239e-20
4.46398e-20
-6.38314e-22
4.73246e-22
-3.70001e-23
5.6756e-24
-1.81911e-24
-2.75338e-25
-2.55399e-25
-1.18509e-25
-5.17736e-26
-2.43903e-26
-1.97246e-26
0
-2.17227e-27
-2.6835e-28
-2.92203e-15
-6.97073e-16
-6.51354e-17
-4.09848e-18
-1.35363e-19
-3.58194e-20
1.55736e-21
-4.82328e-22
4.88875e-23
-1.01125e-23
5.17286e-25
-5.43074e-25
-1.58881e-25
-9.39971e-26
-4.22201e-26
-2.35404e-26
-6.59234e-27
-1.26402e-27
-6.5262e-28
1.45342e-27
-8.35553e-16
-1.91359e-16
-1.60185e-17
-7.63959e-19
-9.03925e-20
6.82165e-21
-2.09295e-21
3.22187e-22
-5.74992e-23
7.62307e-24
-2.04301e-24
-8.87955e-26
-2.08188e-25
-7.27403e-26
-3.77242e-26
-2.41527e-26
-6.40833e-27
0
2.42965e-27
-2.72593e-27
3.9626e-20
1.74327e-17
2.01119e-18
9.78646e-20
2.8648e-20
-4.05623e-21
1.14576e-21
-2.15823e-22
3.87646e-23
-8.07189e-24
7.33606e-25
-4.27374e-25
-8.66907e-26
-8.33166e-26
-3.82407e-26
-1.63242e-26
-4.60686e-27
0
-3.80639e-27
0
6.4456e-16
1.66554e-16
1.72143e-17
8.62494e-19
6.01478e-20
7.39255e-21
-4.23061e-22
1.76101e-22
-3.07542e-23
4.96193e-24
-1.27135e-24
-1.7419e-26
-1.131e-25
-5.49012e-26
-2.76518e-26
-1.51773e-26
-7.85036e-27
-7.10656e-27
-3.0185e-27
2.97133e-27
8.5367e-16
2.18152e-16
2.07747e-17
1.13291e-18
8.04822e-20
3.7851e-21
8.13584e-22
-9.79845e-23
2.55479e-23
-6.00303e-24
7.23984e-25
-3.9113e-25
-8.93464e-26
-7.45839e-26
-3.55572e-26
-2.41247e-26
-8.95811e-27
-1.32265e-27
0
-2.44303e-27
9.36557e-16
2.32529e-16
2.2592e-17
1.1509e-18
8.36229e-20
6.13631e-21
1.2333e-22
7.77811e-23
-1.37047e-23
2.40438e-24
-7.24876e-25
-6.34701e-26
-1.19393e-25
-4.49905e-26
-1.95835e-26
-1.10483e-26
-1.25768e-26
-5.12058e-27
-3.34103e-28
2.46332e-27
8.75322e-16
2.16822e-16
2.03479e-17
1.10744e-18
7.01385e-20
5.35307e-21
3.45024e-22
1.76796e-24
6.42426e-24
-1.58984e-24
-7.44419e-27
-1.86077e-25
-5.59273e-26
-4.02427e-26
-1.73579e-26
5.44423e-29
-8.84315e-27
-1.16904e-27
-1.5606e-27
0
7.73097e-16
1.88417e-16
1.77836e-17
9.21098e-19
6.42435e-20
4.24375e-21
2.48932e-22
3.25351e-23
-7.52665e-25
3.92369e-25
-4.55187e-25
-1.26266e-25
-9.54682e-26
-4.17055e-26
-2.47855e-26
-9.89452e-27
-2.52817e-27
-2.77812e-27
0
-1.69646e-27
6.36618e-16
1.53786e-16
1.43189e-17
7.53114e-19
4.94638e-20
3.55983e-21
2.23493e-22
1.86386e-23
2.55627e-24
-8.63245e-25
-9.40202e-26
-1.57573e-25
-5.12576e-26
-4.38303e-26
-2.84707e-26
-9.28654e-27
-9.9736e-27
-2.7083e-27
0
-1.36515e-27
4.98568e-16
1.19089e-16
1.09398e-17
5.77965e-19
3.72367e-20
2.36628e-21
3.01676e-22
-8.24982e-24
5.11574e-24
-1.4213e-24
-1.01634e-25
-1.582e-25
-7.161e-26
-4.62674e-26
-2.8986e-26
-8.72436e-27
-5.84105e-27
-6.58133e-27
0
0
3.87841e-16
9.1195e-17
8.49929e-18
4.30675e-19
2.76365e-20
2.76944e-21
-8.45373e-23
7.13708e-23
-1.29586e-23
2.61104e-24
-7.13149e-25
-1.55673e-26
-8.78367e-26
-3.04628e-26
-2.83766e-26
-1.39381e-26
-4.44474e-27
-1.64814e-27
-1.50318e-27
-5.48597e-28
2.77817e-16
6.56682e-17
5.72459e-18
3.10634e-19
2.20938e-20
-3.95536e-24
4.03457e-22
-7.73049e-23
1.844e-23
-3.27085e-24
5.26723e-25
-2.23394e-25
-4.24579e-26
-3.33472e-26
-1.73578e-26
-9.34234e-27
-3.5851e-27
-3.87561e-27
-2.91602e-28
-5.88697e-29
2.47201e-16
5.71393e-17
5.5607e-18
2.70374e-19
1.37484e-20
3.26524e-21
-4.25051e-22
1.11274e-22
-2.06268e-23
3.49486e-24
-8.94305e-25
1.25769e-26
-8.55252e-26
-2.23113e-26
-9.75609e-27
-8.87435e-27
-2.79633e-27
1.4784e-28
-2.15782e-27
7.81329e-28
1.50729e-16
3.75574e-17
2.90123e-18
1.47128e-19
2.14552e-20
-2.93687e-21
8.26255e-22
-1.46231e-22
2.78027e-23
-5.15975e-24
5.58119e-25
-1.98181e-25
-2.98138e-26
-2.35711e-26
-9.19843e-27
-5.07022e-27
-1.31531e-27
3.26284e-27
7.93203e-28
-8.14621e-28
2.71253e-16
6.51122e-17
6.27062e-18
4.22526e-19
-6.09274e-21
8.89988e-21
-1.20729e-21
2.42682e-22
-3.82971e-23
5.9916e-24
-1.2068e-24
4.64714e-26
-7.0322e-26
-2.8938e-26
-2.16222e-26
-4.74049e-27
-3.53355e-27
0
1.75859e-28
-2.32233e-28
2.18919e-17
1.96608e-17
3.48276e-19
-5.04541e-19
5.50715e-20
-1.38829e-20
1.56794e-21
-2.85136e-22
3.59254e-23
-6.51818e-24
6.39793e-25
-2.36023e-25
-3.49633e-26
-9.87537e-27
-5.20762e-27
-7.66659e-27
-8.7152e-28
-3.31256e-27
0
0
1.1592e-15
7.95765e-16
7.28176e-17
7.94607e-18
4.34402e-19
5.591e-20
1.5661e-21
4.29903e-22
-1.18111e-23
4.18196e-24
-8.39647e-25
-4.3273e-26
-9.17106e-26
-2.30279e-26
-8.04159e-27
-3.81924e-27
-7.47639e-28
-1.27306e-27
0
3.38851e-28
1.45878e-15
8.44603e-16
8.23325e-17
8.60405e-18
4.29734e-19
7.35316e-20
-5.00398e-22
8.91726e-22
-8.046e-23
1.64442e-23
-2.56509e-24
3.08873e-25
-1.12337e-25
-8.42541e-27
-1.31087e-26
-4.95493e-27
-1.51033e-27
-3.43457e-28
-4.5842e-28
0
)
;

boundaryField
{
    movingWall
    {
        type            calculated;
        value           nonuniform List<scalar> 
20
(
2.08994e-15
2.19668e-15
1.22728e-16
1.59672e-17
1.07096e-19
1.35293e-19
-8.08658e-21
1.98371e-21
-2.49146e-22
4.17217e-23
-6.57632e-24
1.06989e-24
-1.98943e-25
1.95062e-26
-1.16684e-26
-3.00491e-27
-8.70967e-28
-1.83628e-28
-3.87182e-28
0
)
;
    }
    fixedWalls
    {
        type            calculated;
        value           nonuniform List<scalar> 
60
(
-3.04142e-15
-1.57201e-14
-1.53242e-14
-4.37713e-15
7.26061e-18
3.38643e-15
4.48263e-15
4.91594e-15
4.59418e-15
4.0571e-15
3.34098e-15
2.61637e-15
2.03552e-15
1.4581e-15
1.29753e-15
7.91266e-16
1.42346e-15
1.15338e-16
6.08014e-15
7.6528e-15
0
0
1.21305e-27
-3.08095e-27
8.29711e-28
3.27505e-27
-2.21248e-27
2.40721e-27
1.4837e-28
-2.21536e-27
0
0
-1.09989e-27
-9.64522e-29
8.64407e-28
-1.18034e-27
-3.80491e-28
1.42972e-28
1.8187e-28
0
2.24532e-15
2.34645e-15
1.21596e-16
2.00227e-17
-2.82032e-19
2.00816e-19
-1.67448e-20
3.36998e-21
-4.71662e-22
8.17449e-23
-1.31613e-23
2.19463e-24
-3.62856e-25
2.8889e-26
-4.12124e-26
-1.43546e-26
-1.07497e-26
-8.08046e-27
-1.3122e-27
0
)
;
    }
    frontAndBack
    {
        type            empty;
    }
}


// ************************************************************************* //
