/*--------------------------------*- C++ -*----------------------------------*\
| =========                 |                                                 |
| \\      /  F ield         | OpenFOAM: The Open Source CFD Toolbox           |
|  \\    /   O peration     | Version:  2506                                  |
|   \\  /    A nd           | Website:  www.openfoam.com                      |
|    \\/     M anipulation  |                                                 |
\*---------------------------------------------------------------------------*/
FoamFile
{
    version     2.0;
    format      ascii;
    arch        "LSB;label=32;scalar=64";
    class       volVectorField;
    location    "4.625";
    object      UNear;
}
// * * * * * * * * * * * * * * * * * * * * * * * * * * * * * * * * * * * * * //

dimensions      [0 1 -1 0 0 0 0];

internalField   nonuniform List<vector> 
400
(
(-1 9.113e-09 0)
(-1 -2.16336e-09 0)
(-1 5.14233e-10 0)
(-1 -1.21957e-10 0)
(-1 2.90653e-11 0)
(-1 -6.86923e-12 0)
(-1 1.65374e-12 0)
(-1 -3.81519e-13 0)
(-1 9.82394e-14 0)
(-1 -1.84308e-14 0)
(-1 7.73985e-15 0)
(-1 4.38976e-16 0)
(-1 1.47589e-15 0)
(-1 7.91607e-16 0)
(-1 6.85154e-16 0)
(-1 5.15786e-16 0)
(-1 3.96948e-16 0)
(-1 2.73291e-16 0)
(-1 1.13847e-16 0)
(-1 1.28801e-17 0)
(-1 -9.11445e-09 0)
(-1 2.16626e-09 0)
(-1 -5.13327e-10 0)
(-1 1.22192e-10 0)
(-1 -2.8821e-11 0)
(-1 6.92732e-12 0)
(-1 -1.59058e-12 0)
(-1 4.08794e-13 0)
(-1 -7.64587e-14 0)
(-1 3.17872e-14 0)
(-1 1.85687e-15 0)
(-1 6.02894e-15 0)
(-1 3.1072e-15 0)
(-1 2.56436e-15 0)
(-1 1.84602e-15 0)
(-1 1.42067e-15 0)
(-1 9.82477e-16 0)
(-1 5.8731e-16 0)
(-1 2.97837e-16 0)
(-1 9.63696e-17 0)
(-1 9.09807e-09 0)
(-1 -2.16044e-09 0)
(-1 5.12999e-10 0)
(-1 -1.2157e-10 0)
(-1 2.90234e-11 0)
(-1 -6.78962e-12 0)
(-1 1.67744e-12 0)
(-1 -3.55965e-13 0)
(-1 1.13104e-13 0)
(-1 -7.28342e-15 0)
(-1 1.55147e-14 0)
(-1 6.14323e-15 0)
(-1 5.63271e-15 0)
(-1 3.80452e-15 0)
(-1 2.76034e-15 0)
(-1 1.97006e-15 0)
(-1 1.35235e-15 0)
(-1 8.13678e-16 0)
(-1 4.24335e-16 0)
(-1 1.11884e-16 0)
(-1 -9.0789e-09 0)
(-1 2.15472e-09 0)
(-1 -5.11138e-10 0)
(-1 1.21408e-10 0)
(-1 -2.87026e-11 0)
(-1 6.89325e-12 0)
(-1 -1.57475e-12 0)
(-1 4.17374e-13 0)
(-1 -6.77567e-14 0)
(-1 3.84564e-14 0)
(-1 7.08396e-15 0)
(-1 1.0163e-14 0)
(-1 6.23789e-15 0)
(-1 4.88329e-15 0)
(-1 3.54709e-15 0)
(-1 2.59444e-15 0)
(-1 1.79319e-15 0)
(-1 1.05365e-15 0)
(-1 5.38611e-16 0)
(-1 1.57269e-16 0)
(-1 9.05255e-09 0)
(-1 -2.14764e-09 0)
(-1 5.09596e-10 0)
(-1 -1.20813e-10 0)
(-1 2.87381e-11 0)
(-1 -6.75381e-12 0)
(-1 1.65346e-12 0)
(-1 -3.52957e-13 0)
(-1 1.134e-13 0)
(-1 -4.65609e-15 0)
(-1 1.77785e-14 0)
(-1 8.2288e-15 0)
(-1 7.26695e-15 0)
(-1 5.13203e-15 0)
(-1 3.95094e-15 0)
(-1 2.88232e-15 0)
(-1 1.94342e-15 0)
(-1 1.18269e-15 0)
(-1 7.20634e-16 0)
(-1 2.6679e-16 0)
(-1 -9.02712e-09 0)
(-1 2.14122e-09 0)
(-1 -5.07915e-10 0)
(-1 1.20532e-10 0)
(-1 -2.85357e-11 0)
(-1 6.8179e-12 0)
(-1 -1.5757e-12 0)
(-1 4.07267e-13 0)
(-1 -7.01215e-14 0)
(-1 3.72079e-14 0)
(-1 7.01384e-15 0)
(-1 1.04554e-14 0)
(-1 6.74569e-15 0)
(-1 5.33046e-15 0)
(-1 3.85213e-15 0)
(-1 2.82095e-15 0)
(-1 1.98565e-15 0)
(-1 1.34093e-15 0)
(-1 7.82815e-16 0)
(-1 2.50686e-16 0)
(-1 9.00012e-09 0)
(-1 -2.1346e-09 0)
(-1 5.06401e-10 0)
(-1 -1.20076e-10 0)
(-1 2.85179e-11 0)
(-1 -6.72867e-12 0)
(-1 1.62775e-12 0)
(-1 -3.59002e-13 0)
(-1 1.07436e-13 0)
(-1 -7.60156e-15 0)
(-1 1.59968e-14 0)
(-1 7.338e-15 0)
(-1 6.90335e-15 0)
(-1 4.96056e-15 0)
(-1 3.78726e-15 0)
(-1 2.77744e-15 0)
(-1 2.00718e-15 0)
(-1 1.29078e-15 0)
(-1 6.97253e-16 0)
(-1 2.04065e-16 0)
(-1 -8.97572e-09 0)
(-1 2.12879e-09 0)
(-1 -5.04966e-10 0)
(-1 1.19795e-10 0)
(-1 -2.83861e-11 0)
(-1 6.75899e-12 0)
(-1 -1.57949e-12 0)
(-1 3.952e-13 0)
(-1 -7.63524e-14 0)
(-1 3.23549e-14 0)
(-1 3.84503e-15 0)
(-1 8.33126e-15 0)
(-1 5.38347e-15 0)
(-1 4.46784e-15 0)
(-1 3.30144e-15 0)
(-1 2.42419e-15 0)
(-1 1.65401e-15 0)
(-1 1.09695e-15 0)
(-1 7.09431e-16 0)
(-1 2.37741e-16 0)
(-1 8.95193e-09 0)
(-1 -2.12316e-09 0)
(-1 5.03662e-10 0)
(-1 -1.19447e-10 0)
(-1 2.83475e-11 0)
(-1 -6.7071e-12 0)
(-1 1.60687e-12 0)
(-1 -3.66581e-13 0)
(-1 9.9549e-14 0)
(-1 -1.29808e-14 0)
(-1 1.18167e-14 0)
(-1 4.36101e-15 0)
(-1 4.77782e-15 0)
(-1 3.48163e-15 0)
(-1 2.69319e-15 0)
(-1 1.96222e-15 0)
(-1 1.34462e-15 0)
(-1 8.64393e-16 0)
(-1 5.73991e-16 0)
(-1 2.42433e-16 0)
(-1 -8.93076e-09 0)
(-1 2.11823e-09 0)
(-1 -5.02475e-10 0)
(-1 1.19194e-10 0)
(-1 -2.82614e-11 0)
(-1 6.71377e-12 0)
(-1 -1.58286e-12 0)
(-1 3.84095e-13 0)
(-1 -8.33571e-14 0)
(-1 2.66671e-14 0)
(-1 -3.9695e-16 0)
(-1 4.98564e-15 0)
(-1 2.80428e-15 0)
(-1 2.61197e-15 0)
(-1 2.02066e-15 0)
(-1 1.53184e-15 0)
(-1 1.12057e-15 0)
(-1 6.65649e-16 0)
(-1 4.21551e-16 0)
(-1 2.04331e-16 0)
(-1 8.911e-09 0)
(-1 -2.11363e-09 0)
(-1 5.01397e-10 0)
(-1 -1.1893e-10 0)
(-1 2.82125e-11 0)
(-1 -6.68919e-12 0)
(-1 1.5899e-12 0)
(-1 -3.73897e-13 0)
(-1 9.18356e-14 0)
(-1 -1.87654e-14 0)
(-1 7.30507e-15 0)
(-1 7.77633e-16 0)
(-1 2.00743e-15 0)
(-1 1.50744e-15 0)
(-1 1.34917e-15 0)
(-1 1.0371e-15 0)
(-1 8.78256e-16 0)
(-1 5.22744e-16 0)
(-1 2.83625e-16 0)
(-1 1.08749e-16 0)
(-1 -8.89319e-09 0)
(-1 2.1095e-09 0)
(-1 -5.00423e-10 0)
(-1 1.18702e-10 0)
(-1 -2.81605e-11 0)
(-1 6.67656e-12 0)
(-1 -1.58681e-12 0)
(-1 3.74194e-13 0)
(-1 -9.01514e-14 0)
(-1 2.06902e-14 0)
(-1 -5.00778e-15 0)
(-1 1.46322e-15 0)
(-1 7.5537e-17 0)
(-1 5.84009e-16 0)
(-1 5.83578e-16 0)
(-1 5.46773e-16 0)
(-1 4.57844e-16 0)
(-1 2.61093e-16 0)
(-1 5.73734e-17 0)
(-1 -4.7495e-17 0)
(-1 8.87701e-09 0)
(-1 -2.10574e-09 0)
(-1 4.99524e-10 0)
(-1 -1.18506e-10 0)
(-1 2.80994e-11 0)
(-1 -6.67669e-12 0)
(-1 1.57436e-12 0)
(-1 -3.81087e-13 0)
(-1 8.45341e-14 0)
(-1 -2.42458e-14 0)
(-1 2.83739e-15 0)
(-1 -2.53894e-15 0)
(-1 -6.34508e-16 0)
(-1 -6.26273e-16 0)
(-1 -1.89179e-16 0)
(-1 -3.58114e-17 0)
(-1 -3.05198e-17 0)
(-1 -4.29667e-17 0)
(-1 -1.0095e-16 0)
(-1 -1.01447e-16 0)
(-1 -8.86179e-09 0)
(-1 2.10219e-09 0)
(-1 -4.98709e-10 0)
(-1 1.18284e-10 0)
(-1 -2.808e-11 0)
(-1 6.64196e-12 0)
(-1 -1.59207e-12 0)
(-1 3.64478e-13 0)
(-1 -9.66033e-14 0)
(-1 1.54927e-14 0)
(-1 -8.99269e-15 0)
(-1 -1.54144e-15 0)
(-1 -2.06255e-15 0)
(-1 -1.21842e-15 0)
(-1 -8.66046e-16 0)
(-1 -4.49943e-16 0)
(-1 -3.62065e-16 0)
(-1 -3.46964e-16 0)
(-1 -2.19915e-16 0)
(-1 -5.63185e-17 0)
(-1 8.84828e-09 0)
(-1 -2.09903e-09 0)
(-1 4.97917e-10 0)
(-1 -1.18149e-10 0)
(-1 2.79945e-11 0)
(-1 -6.66993e-12 0)
(-1 1.55848e-12 0)
(-1 -3.88194e-13 0)
(-1 7.82292e-14 0)
(-1 -2.87654e-14 0)
(-1 -5.58821e-16 0)
(-1 -5.04478e-15 0)
(-1 -2.35027e-15 0)
(-1 -1.90725e-15 0)
(-1 -1.21379e-15 0)
(-1 -7.51207e-16 0)
(-1 -5.37385e-16 0)
(-1 -4.24815e-16 0)
(-1 -2.08532e-16 0)
(-1 -7.97274e-17 0)
(-1 -8.83461e-09 0)
(-1 2.09579e-09 0)
(-1 -4.97226e-10 0)
(-1 1.17902e-10 0)
(-1 -2.80181e-11 0)
(-1 6.60646e-12 0)
(-1 -1.59857e-12 0)
(-1 3.5591e-13 0)
(-1 -1.01369e-13 0)
(-1 1.19198e-14 0)
(-1 -1.13896e-14 0)
(-1 -3.18187e-15 0)
(-1 -3.35314e-15 0)
(-1 -2.06809e-15 0)
(-1 -1.50969e-15 0)
(-1 -1.09936e-15 0)
(-1 -7.40944e-16 0)
(-1 -4.01507e-16 0)
(-1 -1.13995e-16 0)
(-1 -1.08867e-16 0)
(-1 8.82301e-09 0)
(-1 -2.09308e-09 0)
(-1 4.96443e-10 0)
(-1 -1.17849e-10 0)
(-1 2.78837e-11 0)
(-1 -6.66778e-12 0)
(-1 1.5433e-12 0)
(-1 -3.92802e-13 0)
(-1 7.45628e-14 0)
(-1 -3.05214e-14 0)
(-1 -1.66161e-15 0)
(-1 -5.83221e-15 0)
(-1 -2.87256e-15 0)
(-1 -2.16776e-15 0)
(-1 -1.4575e-15 0)
(-1 -1.0843e-15 0)
(-1 -7.80017e-16 0)
(-1 -4.74939e-16 0)
(-1 -1.81388e-16 0)
(-1 -2.04697e-18 0)
(-1 -8.80986e-09 0)
(-1 2.08992e-09 0)
(-1 -4.95998e-10 0)
(-1 1.17525e-10 0)
(-1 -2.79855e-11 0)
(-1 6.57569e-12 0)
(-1 -1.60156e-12 0)
(-1 3.53639e-13 0)
(-1 -1.01302e-13 0)
(-1 1.24132e-14 0)
(-1 -1.09767e-14 0)
(-1 -2.99015e-15 0)
(-1 -3.06004e-15 0)
(-1 -1.68268e-15 0)
(-1 -1.11672e-15 0)
(-1 -7.05385e-16 0)
(-1 -5.09514e-16 0)
(-1 -3.83851e-16 0)
(-1 -2.49998e-16 0)
(-1 -2.31881e-17 0)
(-1 8.80077e-09 0)
(-1 -2.08809e-09 0)
(-1 4.94737e-10 0)
(-1 -1.17513e-10 0)
(-1 2.77396e-11 0)
(-1 -6.63145e-12 0)
(-1 1.53717e-12 0)
(-1 -3.83897e-13 0)
(-1 7.83961e-14 0)
(-1 -2.64978e-14 0)
(-1 9.1989e-16 0)
(-1 -3.85378e-15 0)
(-1 -1.60019e-15 0)
(-1 -1.31773e-15 0)
(-1 -8.17074e-16 0)
(-1 -5.28983e-16 0)
(-1 -3.35646e-16 0)
(-1 -2.53153e-16 0)
(-1 -1.33416e-16 0)
(-1 -3.42413e-17 0)
(-1 -8.78911e-09 0)
(-1 2.08438e-09 0)
(-1 -4.94988e-10 0)
(-1 1.17361e-10 0)
(-1 -2.79125e-11 0)
(-1 6.60456e-12 0)
(-1 -1.58161e-12 0)
(-1 3.68444e-13 0)
(-1 -9.20378e-14 0)
(-1 1.91469e-14 0)
(-1 -6.34699e-15 0)
(-1 2.93994e-16 0)
(-1 -9.44534e-16 0)
(-1 -4.53392e-16 0)
(-1 -4.22062e-16 0)
(-1 -2.59189e-16 0)
(-1 -1.57134e-16 0)
(-1 -1.16406e-16 0)
(-1 -3.57112e-17 0)
(-1 1.94553e-17 0)
)
;

boundaryField
{
    movingWall
    {
        type            fixedValue;
        value           uniform (-1 -0 -0);
    }
    fixedWalls
    {
        type            calculated;
        value           nonuniform List<vector> 
60
(
(-1 3.6452e-09 0)
(-1 -3.64578e-09 0)
(-1 3.63923e-09 0)
(-1 -3.63156e-09 0)
(-1 3.62102e-09 0)
(-1 -3.61085e-09 0)
(-1 3.60005e-09 0)
(-1 -3.59029e-09 0)
(-1 3.58077e-09 0)
(-1 -3.5723e-09 0)
(-1 3.5644e-09 0)
(-1 -3.55728e-09 0)
(-1 3.5508e-09 0)
(-1 -3.54471e-09 0)
(-1 3.53931e-09 0)
(-1 -3.53384e-09 0)
(-1 3.5292e-09 0)
(-1 -3.52394e-09 0)
(-1 3.52031e-09 0)
(-1 -3.51564e-09 0)
(-1 5.15205e-18 0)
(-1 3.85479e-17 0)
(-1 4.47535e-17 0)
(-1 6.29075e-17 0)
(-1 1.06716e-16 0)
(-1 1.00274e-16 0)
(-1 8.16259e-17 0)
(-1 9.50965e-17 0)
(-1 9.69732e-17 0)
(-1 8.17325e-17 0)
(-1 4.34994e-17 0)
(-1 -1.8998e-17 0)
(-1 -4.05786e-17 0)
(-1 -2.25274e-17 0)
(-1 -3.1891e-17 0)
(-1 -4.35468e-17 0)
(-1 -8.1879e-19 0)
(-1 -9.27524e-18 0)
(-1 -1.36965e-17 0)
(-1 7.78214e-18 0)
(-1 3.6452e-09 0)
(-1 -8.65345e-10 0)
(-1 2.05693e-10 0)
(-1 -4.87829e-11 0)
(-1 1.16261e-11 0)
(-1 -2.74769e-12 0)
(-1 6.61497e-13 0)
(-1 -1.52608e-13 0)
(-1 3.92958e-14 0)
(-1 -7.37232e-15 0)
(-1 3.09594e-15 0)
(-1 1.7559e-16 0)
(-1 5.90356e-16 0)
(-1 3.16643e-16 0)
(-1 2.74062e-16 0)
(-1 2.06314e-16 0)
(-1 1.58779e-16 0)
(-1 1.09317e-16 0)
(-1 4.55388e-17 0)
(-1 5.15205e-18 0)
)
;
    }
    frontAndBack
    {
        type            empty;
    }
}


// ************************************************************************* //
