/*--------------------------------*- C++ -*----------------------------------*\
| =========                 |                                                 |
| \\      /  F ield         | OpenFOAM: The Open Source CFD Toolbox           |
|  \\    /   O peration     | Version:  2506                                  |
|   \\  /    A nd           | Website:  www.openfoam.com                      |
|    \\/     M anipulation  |                                                 |
\*---------------------------------------------------------------------------*/
FoamFile
{
    version     2.0;
    format      ascii;
    arch        "LSB;label=32;scalar=64";
    class       volVectorField;
    location    "4.625";
    object      vorticityField;
}
// * * * * * * * * * * * * * * * * * * * * * * * * * * * * * * * * * * * * * //

dimensions      [0 0 -1 0 0 0 0];

internalField   nonuniform List<vector> 
400
(
(0 -0 6.94129e-07)
(0 -0 -8.60321e-07)
(0 -0 2.0432e-07)
(0 -0 -4.86682e-08)
(0 -0 1.15246e-08)
(0 -0 -2.77182e-09)
(0 -0 6.42726e-10)
(0 -0 -1.6436e-10)
(0 -0 3.18094e-11)
(0 -0 -1.2682e-11)
(0 -0 -4.71161e-13)
(0 -0 -2.2798e-12)
(0 -0 -1.13025e-12)
(0 -0 -8.6512e-13)
(0 -0 -5.15473e-13)
(0 -0 -3.26976e-13)
(0 -0 -1.8688e-13)
(0 -0 -8.25202e-14)
(0 -0 -8.02512e-14)
(0 -0 -1.26727e-14)
(0 -0 -6.9051e-07)
(0 -0 8.59903e-07)
(0 -0 -2.04299e-07)
(0 -0 4.8536e-08)
(0 -0 -1.15312e-08)
(0 -0 2.73947e-09)
(0 -0 -6.50877e-10)
(0 -0 1.54584e-10)
(0 -0 -3.67791e-11)
(0 -0 8.72602e-12)
(0 -0 -2.11504e-12)
(0 -0 3.96083e-13)
(0 -0 -1.29617e-13)
(0 -0 3.65125e-14)
(0 -0 -5.94883e-15)
(0 -0 -3.21439e-14)
(0 -0 -2.02043e-15)
(0 -0 -6.8464e-14)
(0 -0 -2.1989e-14)
(0 -0 -3.94207e-14)
(0 -0 6.89573e-07)
(0 -0 -8.57702e-07)
(0 -0 2.03568e-07)
(0 -0 -4.83136e-08)
(0 -0 1.14663e-08)
(0 -0 -2.72153e-09)
(0 -0 6.45805e-10)
(0 -0 -1.53343e-10)
(0 -0 3.63047e-11)
(0 -0 -8.75601e-12)
(0 -0 1.93898e-12)
(0 -0 -6.08726e-13)
(0 -0 1.00742e-14)
(0 -0 -1.78816e-13)
(0 -0 -1.29236e-13)
(0 -0 -8.65889e-14)
(0 -0 -1.15638e-13)
(0 -0 -9.28018e-14)
(0 -0 -7.01794e-14)
(0 -0 -8.07269e-14)
(0 -0 -6.91243e-07)
(0 -0 8.56561e-07)
(0 -0 -2.03254e-07)
(0 -0 4.82284e-08)
(0 -0 -1.14438e-08)
(0 -0 2.71533e-09)
(0 -0 -6.44389e-10)
(0 -0 1.52841e-10)
(0 -0 -3.63739e-11)
(0 -0 8.51405e-12)
(0 -0 -2.12461e-12)
(0 -0 4.30389e-13)
(0 -0 -1.75609e-13)
(0 -0 -5.22392e-14)
(0 -0 -1.20464e-13)
(0 -0 -9.40751e-14)
(0 -0 -1.54079e-13)
(0 -0 -1.25458e-13)
(0 -0 -1.16743e-13)
(0 -0 -4.24829e-14)
(0 -0 6.90531e-07)
(0 -0 -8.54326e-07)
(0 -0 2.02694e-07)
(0 -0 -4.80887e-08)
(0 -0 1.14086e-08)
(0 -0 -2.70705e-09)
(0 -0 6.41874e-10)
(0 -0 -1.52624e-10)
(0 -0 3.59414e-11)
(0 -0 -8.7219e-12)
(0 -0 1.85769e-12)
(0 -0 -6.44578e-13)
(0 -0 -3.86257e-14)
(0 -0 -8.7655e-14)
(0 -0 -6.23408e-14)
(0 -0 -1.19437e-13)
(0 -0 -1.42858e-13)
(0 -0 -1.22278e-13)
(0 -0 -6.44852e-14)
(0 -0 -9.87424e-14)
(0 -0 -6.89563e-07)
(0 -0 8.52124e-07)
(0 -0 -2.02156e-07)
(0 -0 4.79566e-08)
(0 -0 -1.13769e-08)
(0 -0 2.69877e-09)
(0 -0 -6.4044e-10)
(0 -0 1.51724e-10)
(0 -0 -3.61928e-11)
(0 -0 8.36405e-12)
(0 -0 -2.21446e-12)
(0 -0 3.52656e-13)
(0 -0 -2.95652e-13)
(0 -0 -9.96211e-14)
(0 -0 -1.42531e-13)
(0 -0 -1.05332e-13)
(0 -0 -9.37917e-14)
(0 -0 -6.60736e-14)
(0 -0 -8.19197e-14)
(0 -0 -1.30455e-13)
(0 -0 6.87829e-07)
(0 -0 -8.49637e-07)
(0 -0 2.01557e-07)
(0 -0 -4.78127e-08)
(0 -0 1.1342e-08)
(0 -0 -2.69048e-09)
(0 -0 6.38241e-10)
(0 -0 -1.51408e-10)
(0 -0 3.58719e-11)
(0 -0 -8.52054e-12)
(0 -0 2.03606e-12)
(0 -0 -5.29876e-13)
(0 -0 6.04111e-14)
(0 -0 -9.47686e-14)
(0 -0 -8.2786e-14)
(0 -0 -4.24833e-14)
(0 -0 -9.44559e-14)
(0 -0 -1.30993e-13)
(0 -0 -1.08672e-13)
(0 -0 -6.30268e-14)
(0 -0 -6.86088e-07)
(0 -0 8.47355e-07)
(0 -0 -2.01013e-07)
(0 -0 4.76826e-08)
(0 -0 -1.13111e-08)
(0 -0 2.68297e-09)
(0 -0 -6.36596e-10)
(0 -0 1.50829e-10)
(0 -0 -3.59321e-11)
(0 -0 8.345e-12)
(0 -0 -2.18552e-12)
(0 -0 3.70684e-13)
(0 -0 -1.96606e-13)
(0 -0 -1.26888e-13)
(0 -0 -1.2305e-13)
(0 -0 -1.64743e-13)
(0 -0 -1.05619e-13)
(0 -0 -4.02479e-14)
(0 -0 -8.59207e-14)
(0 -0 -1.21822e-13)
(0 -0 6.84181e-07)
(0 -0 -8.45088e-07)
(0 -0 2.00474e-07)
(0 -0 -4.75551e-08)
(0 -0 1.12803e-08)
(0 -0 -2.6761e-09)
(0 -0 6.34594e-10)
(0 -0 -1.50759e-10)
(0 -0 3.55498e-11)
(0 -0 -8.63771e-12)
(0 -0 1.8426e-12)
(0 -0 -5.68359e-13)
(0 -0 -8.79383e-14)
(0 -0 -2.08463e-13)
(0 -0 -1.5194e-13)
(0 -0 -1.89067e-13)
(0 -0 -5.55731e-14)
(0 -0 -7.7063e-14)
(0 -0 -6.2196e-14)
(0 -0 -8.16424e-14)
(0 -0 -6.82405e-07)
(0 -0 8.43056e-07)
(0 -0 -1.99993e-07)
(0 -0 4.7441e-08)
(0 -0 -1.12538e-08)
(0 -0 2.66945e-09)
(0 -0 -6.33374e-10)
(0 -0 1.50167e-10)
(0 -0 -3.57428e-11)
(0 -0 8.37733e-12)
(0 -0 -2.05972e-12)
(0 -0 3.20123e-13)
(0 -0 -1.83157e-13)
(0 -0 -2.4152e-14)
(0 -0 -8.09077e-14)
(0 -0 -3.57987e-14)
(0 -0 -8.66196e-14)
(0 -0 -6.99019e-14)
(0 -0 -4.61318e-14)
(0 -0 -3.54832e-14)
(0 -0 6.80688e-07)
(0 -0 -8.41146e-07)
(0 -0 1.99542e-07)
(0 -0 -4.73346e-08)
(0 -0 1.12285e-08)
(0 -0 -2.66362e-09)
(0 -0 6.31882e-10)
(0 -0 -1.49942e-10)
(0 -0 3.55944e-11)
(0 -0 -8.39884e-12)
(0 -0 2.00851e-12)
(0 -0 -5.02658e-13)
(0 -0 1.814e-13)
(0 -0 1.54886e-14)
(0 -0 6.13862e-14)
(0 -0 -1.99863e-14)
(0 -0 2.77499e-15)
(0 -0 -3.2358e-14)
(0 -0 -4.13995e-14)
(0 -0 -3.92374e-14)
(0 -0 -6.79114e-07)
(0 -0 8.39421e-07)
(0 -0 -1.99135e-07)
(0 -0 4.72387e-08)
(0 -0 -1.12059e-08)
(0 -0 2.65826e-09)
(0 -0 -6.30724e-10)
(0 -0 1.49612e-10)
(0 -0 -3.5513e-11)
(0 -0 8.37883e-12)
(0 -0 -1.97691e-12)
(0 -0 4.27017e-13)
(0 -0 -8.7921e-14)
(0 -0 5.08041e-14)
(0 -0 -5.79338e-14)
(0 -0 -1.25734e-14)
(0 -0 -8.27781e-14)
(0 -0 -6.71521e-14)
(0 -0 -3.08588e-14)
(0 -0 -9.87833e-16)
(0 -0 6.77708e-07)
(0 -0 -8.37859e-07)
(0 -0 1.98767e-07)
(0 -0 -4.71518e-08)
(0 -0 1.11854e-08)
(0 -0 -2.65356e-09)
(0 -0 6.29425e-10)
(0 -0 -1.49471e-10)
(0 -0 3.53317e-11)
(0 -0 -8.52204e-12)
(0 -0 1.92674e-12)
(0 -0 -5.36925e-13)
(0 -0 -2.55742e-14)
(0 -0 -9.09924e-14)
(0 -0 -2.2269e-14)
(0 -0 -1.12391e-14)
(0 -0 -7.15534e-16)
(0 -0 -7.04301e-15)
(0 -0 -5.84798e-15)
(0 -0 -6.86542e-15)
(0 -0 -6.76377e-07)
(0 -0 8.36388e-07)
(0 -0 -1.9842e-07)
(0 -0 4.70696e-08)
(0 -0 -1.11662e-08)
(0 -0 2.6488e-09)
(0 -0 -6.28399e-10)
(0 -0 1.49032e-10)
(0 -0 -3.54407e-11)
(0 -0 8.4087e-12)
(0 -0 -2.08288e-12)
(0 -0 4.49068e-13)
(0 -0 -1.30329e-13)
(0 -0 -4.29796e-14)
(0 -0 -4.46713e-15)
(0 -0 -5.80222e-14)
(0 -0 -7.10172e-14)
(0 -0 -3.99951e-14)
(0 -0 2.90645e-14)
(0 -0 2.76234e-14)
(0 -0 6.75297e-07)
(0 -0 -8.35106e-07)
(0 -0 1.98117e-07)
(0 -0 -4.69981e-08)
(0 -0 1.11492e-08)
(0 -0 -2.64485e-09)
(0 -0 6.27496e-10)
(0 -0 -1.48784e-10)
(0 -0 3.53736e-11)
(0 -0 -8.33959e-12)
(0 -0 2.0197e-12)
(0 -0 -4.2309e-13)
(0 -0 9.69134e-14)
(0 -0 -2.18773e-14)
(0 -0 6.13938e-14)
(0 -0 4.05355e-14)
(0 -0 -2.15709e-14)
(0 -0 3.28853e-14)
(0 -0 -1.97013e-14)
(0 -0 5.5931e-14)
(0 -0 -6.7411e-07)
(0 -0 8.33785e-07)
(0 -0 -1.97804e-07)
(0 -0 4.6924e-08)
(0 -0 -1.11315e-08)
(0 -0 2.64084e-09)
(0 -0 -6.26383e-10)
(0 -0 1.48744e-10)
(0 -0 -3.52122e-11)
(0 -0 8.42872e-12)
(0 -0 -1.88964e-12)
(0 -0 5.59703e-13)
(0 -0 -1.05463e-13)
(0 -0 4.88196e-14)
(0 -0 1.55584e-14)
(0 -0 2.26643e-14)
(0 -0 6.97848e-14)
(0 -0 1.16905e-13)
(0 -0 5.63691e-14)
(0 -0 -4.81888e-15)
(0 -0 6.734e-07)
(0 -0 -8.32736e-07)
(0 -0 1.97555e-07)
(0 -0 -4.6865e-08)
(0 -0 1.11175e-08)
(0 -0 -2.63743e-09)
(0 -0 6.25574e-10)
(0 -0 -1.48527e-10)
(0 -0 3.5171e-11)
(0 -0 -8.40849e-12)
(0 -0 1.98103e-12)
(0 -0 -5.00565e-13)
(0 -0 1.76709e-13)
(0 -0 -4.82295e-14)
(0 -0 -8.13892e-14)
(0 -0 1.3538e-14)
(0 -0 3.3831e-14)
(0 -0 5.9863e-14)
(0 -0 7.43942e-14)
(0 -0 1.83434e-14)
(0 -0 -6.7203e-07)
(0 -0 8.3141e-07)
(0 -0 -1.97241e-07)
(0 -0 4.67905e-08)
(0 -0 -1.10999e-08)
(0 -0 2.63313e-09)
(0 -0 -6.24726e-10)
(0 -0 1.48129e-10)
(0 -0 -3.51796e-11)
(0 -0 8.32779e-12)
(0 -0 -2.00112e-12)
(0 -0 5.47718e-13)
(0 -0 -4.7787e-15)
(0 -0 1.67226e-13)
(0 -0 9.77298e-14)
(0 -0 3.36159e-14)
(0 -0 5.04835e-15)
(0 -0 -5.53636e-14)
(0 -0 3.60663e-14)
(0 -0 2.73186e-14)
(0 -0 6.73e-07)
(0 -0 -8.31563e-07)
(0 -0 1.97427e-07)
(0 -0 -4.687e-08)
(0 -0 1.11273e-08)
(0 -0 -2.64157e-09)
(0 -0 6.27276e-10)
(0 -0 -1.48832e-10)
(0 -0 3.54418e-11)
(0 -0 -8.34393e-12)
(0 -0 1.99336e-12)
(0 -0 -4.68848e-13)
(0 -0 1.18079e-13)
(0 -0 -3.00362e-15)
(0 -0 2.46648e-14)
(0 -0 -6.0673e-15)
(0 -0 4.77962e-16)
(0 -0 -6.88203e-15)
(0 -0 2.18911e-14)
(0 -0 4.38708e-14)
(0 -0 -6.72649e-07)
(0 -0 8.30431e-07)
(0 -0 -1.97121e-07)
(0 -0 4.68917e-08)
(0 -0 -1.11146e-08)
(0 -0 2.66098e-09)
(0 -0 -6.22934e-10)
(0 -0 1.54921e-10)
(0 -0 -3.27342e-11)
(0 -0 1.05206e-11)
(0 -0 -7.19769e-13)
(0 -0 1.32629e-12)
(0 -0 4.13152e-13)
(0 -0 3.50403e-13)
(0 -0 2.09156e-13)
(0 -0 1.62018e-13)
(0 -0 9.55934e-14)
(0 -0 6.63524e-14)
(0 -0 1.35862e-14)
(0 -0 1.62559e-15)
)
;

boundaryField
{
    movingWall
    {
        type            calculated;
        value           nonuniform List<vector> 
20
(
(0 -0 -6.72693e-07)
(0 -0 8.32317e-07)
(0 -0 -1.97904e-07)
(0 -0 4.73158e-08)
(0 -0 -1.1217e-08)
(0 -0 2.71871e-09)
(0 -0 -6.28408e-10)
(0 -0 1.64501e-10)
(0 -0 -3.07109e-11)
(0 -0 1.30988e-11)
(0 -0 6.90431e-13)
(0 -0 2.44983e-12)
(0 -0 1.07989e-12)
(0 -0 8.96017e-13)
(0 -0 5.96736e-13)
(0 -0 3.37355e-13)
(0 -0 1.91914e-13)
(0 -0 1.0096e-13)
(0 -0 1.35862e-14)
(0 -0 1.62559e-15)
)
;
    }
    fixedWalls
    {
        type            calculated;
        value           nonuniform List<vector> 
60
(
(0 -0 3.64436e-06)
(0 -0 -3.64147e-06)
(0 -0 3.63504e-06)
(0 -0 -3.63038e-06)
(0 -0 3.62106e-06)
(0 -0 -3.61182e-06)
(0 -0 3.60133e-06)
(0 -0 -3.59168e-06)
(0 -0 3.58208e-06)
(0 -0 -3.57346e-06)
(0 -0 3.56535e-06)
(0 -0 -3.55802e-06)
(0 -0 3.55138e-06)
(0 -0 -3.54513e-06)
(0 -0 3.53968e-06)
(0 -0 -3.53407e-06)
(0 -0 3.52961e-06)
(0 -0 -3.52398e-06)
(0 -0 3.52204e-06)
(0 -0 -3.51782e-06)
(0 -0 -5.15205e-15)
(0 -0 -3.85479e-14)
(0 -0 -7.18586e-14)
(0 -0 -3.58024e-14)
(0 -0 -1.06716e-13)
(0 -0 -1.27379e-13)
(0 -0 -5.45209e-14)
(0 -0 -1.22202e-13)
(0 -0 -9.69732e-14)
(0 -0 -5.46274e-14)
(0 -0 -4.34994e-14)
(0 -0 1.8998e-14)
(0 -0 1.34736e-14)
(0 -0 2.25274e-14)
(0 -0 5.8996e-14)
(0 -0 1.64418e-14)
(0 -0 8.1879e-16)
(0 -0 9.27524e-15)
(0 -0 4.08016e-14)
(0 -0 -7.78214e-15)
(0 -0 6.99301e-07)
(0 -0 -8.6337e-07)
(0 -0 2.05438e-07)
(0 -0 -4.92237e-08)
(0 -0 1.1636e-08)
(0 -0 -2.84743e-09)
(0 -0 6.44241e-10)
(0 -0 -1.78332e-10)
(0 -0 2.72494e-11)
(0 -0 -1.72656e-11)
(0 -0 -3.22005e-12)
(0 -0 -4.31234e-12)
(0 -0 -2.54045e-12)
(0 -0 -1.85543e-12)
(0 -0 -1.22662e-12)
(0 -0 -6.94954e-13)
(0 -0 -4.68339e-13)
(0 -0 -1.61537e-13)
(0 -0 -7.04501e-14)
(0 -0 -1.26727e-14)
)
;
    }
    frontAndBack
    {
        type            empty;
    }
}


// ************************************************************************* //
