/*--------------------------------*- C++ -*----------------------------------*\
| =========                 |                                                 |
| \\      /  F ield         | OpenFOAM: The Open Source CFD Toolbox           |
|  \\    /   O peration     | Version:  2506                                  |
|   \\  /    A nd           | Website:  www.openfoam.com                      |
|    \\/     M anipulation  |                                                 |
\*---------------------------------------------------------------------------*/
FoamFile
{
    version     2.0;
    format      ascii;
    arch        "LSB;label=32;scalar=64";
    class       volVectorField;
    location    "6.375";
    object      diffU;
}
// * * * * * * * * * * * * * * * * * * * * * * * * * * * * * * * * * * * * * //

dimensions      [0 1 -1 0 0 0 0];

internalField   nonuniform List<vector> 
400
(
(0 0 0)
(2.05391e-14 -1.5429e-13 0)
(1.57652e-14 -1.20748e-13 0)
(1.64313e-14 -1.28451e-13 0)
(1.66533e-14 -1.26792e-13 0)
(1.64313e-14 -1.27136e-13 0)
(1.66533e-14 -1.27069e-13 0)
(1.66533e-14 -1.27094e-13 0)
(1.68754e-14 -1.26967e-13 0)
(1.66533e-14 -1.26948e-13 0)
(1.68754e-14 -1.26979e-13 0)
(1.68754e-14 -1.27085e-13 0)
(1.68754e-14 -1.27059e-13 0)
(1.70974e-14 -1.26957e-13 0)
(1.68754e-14 -1.26955e-13 0)
(1.68754e-14 -1.26947e-13 0)
(1.69864e-14 -1.26975e-13 0)
(1.68754e-14 -1.26983e-13 0)
(1.69864e-14 -1.26961e-13 0)
(1.68754e-14 -1.27021e-13 0)
(4.13003e-14 -1.02597e-13 0)
(9.99201e-15 -1.32008e-13 0)
(1.64313e-14 -1.25901e-13 0)
(1.62093e-14 -1.27341e-13 0)
(1.62093e-14 -1.27003e-13 0)
(1.64313e-14 -1.27065e-13 0)
(1.64313e-14 -1.27099e-13 0)
(1.62093e-14 -1.27143e-13 0)
(1.64313e-14 -1.2705e-13 0)
(1.62093e-14 -1.27037e-13 0)
(1.62093e-14 -1.27081e-13 0)
(1.64313e-14 -1.2714e-13 0)
(1.62093e-14 -1.27092e-13 0)
(1.64313e-14 -1.27051e-13 0)
(1.64313e-14 -1.27036e-13 0)
(1.64313e-14 -1.27018e-13 0)
(1.66533e-14 -1.27055e-13 0)
(1.64313e-14 -1.27055e-13 0)
(1.64313e-14 -1.27037e-13 0)
(1.66533e-14 -1.27078e-13 0)
(6.88338e-15 -2.54864e-13 0)
(1.9762e-14 -9.98831e-14 0)
(1.66533e-14 -1.33637e-13 0)
(1.70974e-14 -1.25793e-13 0)
(1.70974e-14 -1.27386e-13 0)
(1.69864e-14 -1.27048e-13 0)
(1.69864e-14 -1.27155e-13 0)
(1.72085e-14 -1.27024e-13 0)
(1.73195e-14 -1.26995e-13 0)
(1.73195e-14 -1.26934e-13 0)
(1.68754e-14 -1.2698e-13 0)
(1.68754e-14 -1.26962e-13 0)
(1.68754e-14 -1.27024e-13 0)
(1.68754e-14 -1.27085e-13 0)
(1.70974e-14 -1.27015e-13 0)
(1.68754e-14 -1.27043e-13 0)
(1.69864e-14 -1.27078e-13 0)
(1.69864e-14 -1.2712e-13 0)
(1.69864e-14 -1.2717e-13 0)
(1.68754e-14 -1.27104e-13 0)
(2.66454e-15 -4.27165e-14 0)
(2.05391e-14 -1.46167e-13 0)
(1.64313e-14 -1.22777e-13 0)
(1.68754e-14 -1.28039e-13 0)
(1.64313e-14 -1.26799e-13 0)
(1.64313e-14 -1.27076e-13 0)
(1.59872e-14 -1.27045e-13 0)
(1.59872e-14 -1.27056e-13 0)
(1.59872e-14 -1.27048e-13 0)
(1.62093e-14 -1.26994e-13 0)
(1.59872e-14 -1.26993e-13 0)
(1.64313e-14 -1.27014e-13 0)
(1.64313e-14 -1.27099e-13 0)
(1.62093e-14 -1.27144e-13 0)
(1.68754e-14 -1.27164e-13 0)
(1.68754e-14 -1.27107e-13 0)
(1.68754e-14 -1.27024e-13 0)
(1.70974e-14 -1.26998e-13 0)
(1.68754e-14 -1.27071e-13 0)
(1.68754e-14 -1.27081e-13 0)
(4.17444e-14 -1.21516e-13 0)
(1.06581e-14 -1.28345e-13 0)
(1.80966e-14 -1.2679e-13 0)
(1.68754e-14 -1.26962e-13 0)
(1.73195e-14 -1.26849e-13 0)
(1.70974e-14 -1.26837e-13 0)
(1.72085e-14 -1.26899e-13 0)
(1.72085e-14 -1.27118e-13 0)
(1.70974e-14 -1.27174e-13 0)
(1.72085e-14 -1.27191e-13 0)
(1.72085e-14 -1.27177e-13 0)
(1.73195e-14 -1.27195e-13 0)
(1.69864e-14 -1.27195e-13 0)
(1.72085e-14 -1.27163e-13 0)
(1.73195e-14 -1.27188e-13 0)
(1.70974e-14 -1.27036e-13 0)
(1.66533e-14 -1.27018e-13 0)
(1.66533e-14 -1.27043e-13 0)
(1.68754e-14 -1.2705e-13 0)
(1.69864e-14 -1.2708e-13 0)
(6.66134e-15 -2.19294e-13 0)
(2.06501e-14 -1.06697e-13 0)
(1.69864e-14 -1.31542e-13 0)
(1.73195e-14 -1.25825e-13 0)
(1.72085e-14 -1.27173e-13 0)
(1.73195e-14 -1.26895e-13 0)
(1.75415e-14 -1.26952e-13 0)
(1.74305e-14 -1.2697e-13 0)
(1.74305e-14 -1.27016e-13 0)
(1.72085e-14 -1.27119e-13 0)
(1.72085e-14 -1.27153e-13 0)
(1.72085e-14 -1.27126e-13 0)
(1.69864e-14 -1.27102e-13 0)
(1.68754e-14 -1.27123e-13 0)
(1.66533e-14 -1.27081e-13 0)
(1.66533e-14 -1.26991e-13 0)
(1.69864e-14 -1.2698e-13 0)
(1.69864e-14 -1.27101e-13 0)
(1.70974e-14 -1.27073e-13 0)
(1.68754e-14 -1.27047e-13 0)
(1.82077e-14 -1.20968e-14 0)
(1.68754e-14 -1.51408e-13 0)
(1.73195e-14 -1.20995e-13 0)
(1.69864e-14 -1.28087e-13 0)
(1.73195e-14 -1.26684e-13 0)
(1.70974e-14 -1.2704e-13 0)
(1.69864e-14 -1.26932e-13 0)
(1.70974e-14 -1.269e-13 0)
(1.69864e-14 -1.26939e-13 0)
(1.70974e-14 -1.27092e-13 0)
(1.70974e-14 -1.27063e-13 0)
(1.69864e-14 -1.26957e-13 0)
(1.69864e-14 -1.2695e-13 0)
(1.73195e-14 -1.26974e-13 0)
(1.70974e-14 -1.2699e-13 0)
(1.64313e-14 -1.27105e-13 0)
(1.68754e-14 -1.27126e-13 0)
(1.68754e-14 -1.27128e-13 0)
(1.68754e-14 -1.27011e-13 0)
(1.69864e-14 -1.26953e-13 0)
(2.22045e-14 -1.67795e-13 0)
(1.42109e-14 -1.17945e-13 0)
(1.57652e-14 -1.29082e-13 0)
(1.64313e-14 -1.26479e-13 0)
(1.62093e-14 -1.27027e-13 0)
(1.62093e-14 -1.2686e-13 0)
(1.62093e-14 -1.26948e-13 0)
(1.62093e-14 -1.26993e-13 0)
(1.62093e-14 -1.27069e-13 0)
(1.64313e-14 -1.2709e-13 0)
(1.59872e-14 -1.27078e-13 0)
(1.64313e-14 -1.27038e-13 0)
(1.64313e-14 -1.27056e-13 0)
(1.62093e-14 -1.27065e-13 0)
(1.66533e-14 -1.27015e-13 0)
(1.69864e-14 -1.27086e-13 0)
(1.66533e-14 -1.27185e-13 0)
(1.68754e-14 -1.27127e-13 0)
(1.66533e-14 -1.27062e-13 0)
(1.68754e-14 -1.26943e-13 0)
(1.06581e-14 -1.82226e-13 0)
(1.9762e-14 -1.1519e-13 0)
(1.78746e-14 -1.29761e-13 0)
(1.72085e-14 -1.26356e-13 0)
(1.72085e-14 -1.27059e-13 0)
(1.74305e-14 -1.26838e-13 0)
(1.74305e-14 -1.26877e-13 0)
(1.73195e-14 -1.26864e-13 0)
(1.70974e-14 -1.26989e-13 0)
(1.72085e-14 -1.26971e-13 0)
(1.72085e-14 -1.27043e-13 0)
(1.73195e-14 -1.27103e-13 0)
(1.73195e-14 -1.27146e-13 0)
(1.75415e-14 -1.27263e-13 0)
(1.70974e-14 -1.27135e-13 0)
(1.69864e-14 -1.26992e-13 0)
(1.68754e-14 -1.26968e-13 0)
(1.68754e-14 -1.27041e-13 0)
(1.68754e-14 -1.27114e-13 0)
(1.69864e-14 -1.27015e-13 0)
(1.83187e-14 -2.95741e-14 0)
(1.64313e-14 -1.48549e-13 0)
(1.66533e-14 -1.2182e-13 0)
(1.68754e-14 -1.27933e-13 0)
(1.68754e-14 -1.26578e-13 0)
(1.66533e-14 -1.26977e-13 0)
(1.66533e-14 -1.26814e-13 0)
(1.68754e-14 -1.2684e-13 0)
(1.68754e-14 -1.26946e-13 0)
(1.68754e-14 -1.27023e-13 0)
(1.70974e-14 -1.27091e-13 0)
(1.68754e-14 -1.27195e-13 0)
(1.70974e-14 -1.27155e-13 0)
(1.69864e-14 -1.27046e-13 0)
(1.66533e-14 -1.26958e-13 0)
(1.64313e-14 -1.26951e-13 0)
(1.69864e-14 -1.2698e-13 0)
(1.68754e-14 -1.27063e-13 0)
(1.69864e-14 -1.27101e-13 0)
(1.68754e-14 -1.27047e-13 0)
(1.9984e-14 -2.30627e-13 0)
(1.55431e-14 -1.0395e-13 0)
(1.68754e-14 -1.32169e-13 0)
(1.66533e-14 -1.25659e-13 0)
(1.69864e-14 -1.27111e-13 0)
(1.69864e-14 -1.26833e-13 0)
(1.69864e-14 -1.26895e-13 0)
(1.73195e-14 -1.26989e-13 0)
(1.75415e-14 -1.27055e-13 0)
(1.73195e-14 -1.27114e-13 0)
(1.74305e-14 -1.27178e-13 0)
(1.73195e-14 -1.27226e-13 0)
(1.70974e-14 -1.27009e-13 0)
(1.69864e-14 -1.26799e-13 0)
(1.69864e-14 -1.26883e-13 0)
(1.69864e-14 -1.26978e-13 0)
(1.69864e-14 -1.27114e-13 0)
(1.68754e-14 -1.27082e-13 0)
(1.68754e-14 -1.27061e-13 0)
(1.69864e-14 -1.27073e-13 0)
(1.04361e-14 -6.01889e-14 0)
(1.83187e-14 -1.41294e-13 0)
(1.64313e-14 -1.23787e-13 0)
(1.62093e-14 -1.27773e-13 0)
(1.66533e-14 -1.26802e-13 0)
(1.64313e-14 -1.26888e-13 0)
(1.64313e-14 -1.26953e-13 0)
(1.64313e-14 -1.27061e-13 0)
(1.64313e-14 -1.2709e-13 0)
(1.66533e-14 -1.26985e-13 0)
(1.66533e-14 -1.26952e-13 0)
(1.66533e-14 -1.26906e-13 0)
(1.62093e-14 -1.26921e-13 0)
(1.64313e-14 -1.26897e-13 0)
(1.66533e-14 -1.26943e-13 0)
(1.69864e-14 -1.26975e-13 0)
(1.72085e-14 -1.27115e-13 0)
(1.69864e-14 -1.27e-13 0)
(1.69864e-14 -1.26936e-13 0)
(1.69864e-14 -1.27035e-13 0)
(1.59872e-14 -1.13724e-13 0)
(1.57652e-14 -1.30493e-13 0)
(1.57652e-14 -1.26238e-13 0)
(1.62093e-14 -1.27232e-13 0)
(1.66533e-14 -1.2694e-13 0)
(1.64313e-14 -1.26971e-13 0)
(1.62093e-14 -1.27063e-13 0)
(1.66533e-14 -1.27176e-13 0)
(1.66533e-14 -1.27163e-13 0)
(1.64313e-14 -1.27044e-13 0)
(1.62093e-14 -1.26948e-13 0)
(1.64313e-14 -1.26898e-13 0)
(1.68754e-14 -1.27067e-13 0)
(1.64313e-14 -1.27203e-13 0)
(1.64313e-14 -1.27215e-13 0)
(1.66533e-14 -1.2721e-13 0)
(1.68754e-14 -1.27132e-13 0)
(1.64313e-14 -1.26993e-13 0)
(1.66533e-14 -1.2696e-13 0)
(1.68754e-14 -1.27006e-13 0)
(2.18714e-14 -2.15565e-13 0)
(1.72085e-14 -1.07751e-13 0)
(1.80966e-14 -1.31416e-13 0)
(1.72085e-14 -1.25925e-13 0)
(1.73195e-14 -1.27113e-13 0)
(1.72085e-14 -1.26924e-13 0)
(1.70974e-14 -1.27101e-13 0)
(1.73195e-14 -1.27152e-13 0)
(1.70974e-14 -1.27077e-13 0)
(1.73195e-14 -1.2704e-13 0)
(1.72085e-14 -1.27019e-13 0)
(1.73195e-14 -1.27044e-13 0)
(1.75415e-14 -1.26981e-13 0)
(1.74305e-14 -1.26973e-13 0)
(1.70974e-14 -1.27035e-13 0)
(1.69864e-14 -1.27112e-13 0)
(1.66533e-14 -1.27042e-13 0)
(1.66533e-14 -1.27091e-13 0)
(1.68754e-14 -1.27096e-13 0)
(1.69864e-14 -1.27012e-13 0)
(7.54952e-15 -1.96152e-14 0)
(1.77636e-14 -1.50058e-13 0)
(1.55431e-14 -1.21757e-13 0)
(1.59872e-14 -1.28177e-13 0)
(1.59872e-14 -1.26689e-13 0)
(1.64313e-14 -1.27006e-13 0)
(1.66533e-14 -1.27065e-13 0)
(1.64313e-14 -1.27176e-13 0)
(1.64313e-14 -1.27129e-13 0)
(1.64313e-14 -1.27112e-13 0)
(1.64313e-14 -1.2706e-13 0)
(1.66533e-14 -1.27017e-13 0)
(1.64313e-14 -1.26958e-13 0)
(1.64313e-14 -1.26972e-13 0)
(1.66533e-14 -1.26988e-13 0)
(1.69864e-14 -1.26997e-13 0)
(1.68754e-14 -1.26932e-13 0)
(1.70974e-14 -1.27026e-13 0)
(1.68754e-14 -1.27043e-13 0)
(1.68754e-14 -1.27014e-13 0)
(2.93099e-14 -1.85538e-13 0)
(1.33227e-14 -1.13804e-13 0)
(1.66533e-14 -1.3008e-13 0)
(1.64313e-14 -1.26385e-13 0)
(1.64313e-14 -1.27324e-13 0)
(1.64313e-14 -1.27166e-13 0)
(1.68754e-14 -1.27194e-13 0)
(1.68754e-14 -1.27153e-13 0)
(1.66533e-14 -1.27084e-13 0)
(1.66533e-14 -1.2706e-13 0)
(1.66533e-14 -1.27052e-13 0)
(1.64313e-14 -1.27027e-13 0)
(1.66533e-14 -1.27065e-13 0)
(1.64313e-14 -1.27189e-13 0)
(1.64313e-14 -1.27302e-13 0)
(1.64313e-14 -1.27242e-13 0)
(1.66533e-14 -1.27081e-13 0)
(1.68754e-14 -1.27007e-13 0)
(1.69864e-14 -1.26941e-13 0)
(1.68754e-14 -1.2701e-13 0)
(-4.21885e-15 -1.57469e-13 0)
(2.26485e-14 -1.20453e-13 0)
(1.64313e-14 -1.28339e-13 0)
(1.70974e-14 -1.26779e-13 0)
(1.70974e-14 -1.27345e-13 0)
(1.73195e-14 -1.27346e-13 0)
(1.72085e-14 -1.2724e-13 0)
(1.72085e-14 -1.27131e-13 0)
(1.72085e-14 -1.27086e-13 0)
(1.73195e-14 -1.26983e-13 0)
(1.74305e-14 -1.269e-13 0)
(1.73195e-14 -1.26908e-13 0)
(1.72085e-14 -1.26916e-13 0)
(1.69864e-14 -1.26954e-13 0)
(1.68754e-14 -1.27159e-13 0)
(1.68754e-14 -1.2721e-13 0)
(1.66533e-14 -1.27172e-13 0)
(1.66533e-14 -1.27115e-13 0)
(1.66533e-14 -1.27032e-13 0)
(1.68754e-14 -1.2704e-13 0)
(1.83187e-14 -2.51942e-14 0)
(1.66533e-14 -1.49082e-13 0)
(1.72085e-14 -1.2174e-13 0)
(1.69864e-14 -1.28199e-13 0)
(1.68754e-14 -1.26849e-13 0)
(1.66533e-14 -1.27154e-13 0)
(1.66533e-14 -1.2707e-13 0)
(1.66533e-14 -1.27114e-13 0)
(1.64313e-14 -1.27163e-13 0)
(1.64313e-14 -1.27116e-13 0)
(1.64313e-14 -1.27068e-13 0)
(1.66533e-14 -1.2703e-13 0)
(1.64313e-14 -1.26993e-13 0)
(1.68754e-14 -1.27001e-13 0)
(1.70974e-14 -1.26973e-13 0)
(1.66533e-14 -1.26988e-13 0)
(1.68754e-14 -1.26998e-13 0)
(1.68754e-14 -1.27087e-13 0)
(1.68754e-14 -1.27138e-13 0)
(1.69864e-14 -1.27103e-13 0)
(4.20775e-14 -1.64948e-13 0)
(9.99201e-15 -1.18663e-13 0)
(1.74305e-14 -1.28946e-13 0)
(1.66533e-14 -1.26606e-13 0)
(1.68754e-14 -1.27184e-13 0)
(1.69864e-14 -1.27078e-13 0)
(1.69864e-14 -1.27149e-13 0)
(1.70974e-14 -1.2707e-13 0)
(1.70974e-14 -1.27046e-13 0)
(1.69864e-14 -1.27019e-13 0)
(1.69864e-14 -1.27086e-13 0)
(1.68754e-14 -1.27141e-13 0)
(1.68754e-14 -1.27125e-13 0)
(1.66533e-14 -1.27103e-13 0)
(1.68754e-14 -1.27042e-13 0)
(1.64313e-14 -1.27036e-13 0)
(1.68754e-14 -1.27059e-13 0)
(1.68754e-14 -1.27086e-13 0)
(1.68754e-14 -1.27122e-13 0)
(1.69864e-14 -1.27063e-13 0)
(3.77476e-15 -2.10474e-13 0)
(2.14273e-14 -1.09031e-13 0)
(1.74305e-14 -1.31325e-13 0)
(1.77636e-14 -1.26188e-13 0)
(1.76525e-14 -1.27377e-13 0)
(1.74305e-14 -1.27129e-13 0)
(1.73195e-14 -1.2717e-13 0)
(1.72085e-14 -1.2706e-13 0)
(1.73195e-14 -1.26997e-13 0)
(1.70974e-14 -1.26943e-13 0)
(1.74305e-14 -1.26928e-13 0)
(1.72085e-14 -1.26972e-13 0)
(1.69864e-14 -1.26984e-13 0)
(1.72085e-14 -1.26985e-13 0)
(1.70974e-14 -1.27063e-13 0)
(1.69864e-14 -1.27085e-13 0)
(1.69864e-14 -1.27113e-13 0)
(1.68754e-14 -1.27087e-13 0)
(1.68754e-14 -1.2707e-13 0)
(1.68754e-14 -1.27013e-13 0)
)
;

boundaryField
{
    movingWall
    {
        type            calculated;
        value           uniform (1.68754e-14 -1.27008e-13 0);
    }
    fixedWalls
    {
        type            calculated;
        value           uniform (1.68754e-14 -1.27008e-13 0);
    }
    frontAndBack
    {
        type            empty;
    }
}


// ************************************************************************* //
