/*--------------------------------*- C++ -*----------------------------------*\
| =========                 |                                                 |
| \\      /  F ield         | OpenFOAM: The Open Source CFD Toolbox           |
|  \\    /   O peration     | Version:  2506                                  |
|   \\  /    A nd           | Website:  www.openfoam.com                      |
|    \\/     M anipulation  |                                                 |
\*---------------------------------------------------------------------------*/
FoamFile
{
    version     2.0;
    format      ascii;
    arch        "LSB;label=32;scalar=64";
    class       volScalarField;
    location    "6.375";
    object      divU;
}
// * * * * * * * * * * * * * * * * * * * * * * * * * * * * * * * * * * * * * //

dimensions      [0 0 -1 0 0 0 0];

internalField   nonuniform List<scalar> 
400
(
1.38236e-11
-1.62898e-12
3.30186e-13
-1.23314e-13
2.21808e-14
-1.85078e-14
1.18955e-14
-2.20609e-14
5.4096e-14
-5.11092e-14
4.98754e-14
-2.08661e-14
1.37023e-14
7.81314e-16
-2.46149e-14
5.1376e-15
2.5677e-14
-2.93004e-14
1.85842e-15
0
-2.37169e-11
2.91726e-12
-6.60564e-13
2.77998e-13
-1.01796e-14
1.73265e-14
3.24578e-15
-4.22175e-14
5.13196e-14
-4.96837e-14
4.97564e-14
1.84935e-14
-6.41833e-14
4.22311e-14
-3.50244e-15
-4.4959e-15
-1.17414e-14
-1.58315e-14
8.02939e-15
2.71051e-14
5.28549e-12
-4.50228e-13
3.13053e-14
-8.69952e-15
-1.68812e-14
-1.07973e-14
3.58123e-14
2.07059e-14
2.43926e-14
-1.82954e-14
-4.98794e-14
3.95278e-15
-1.06658e-14
5.87596e-15
-1.62746e-14
-1.34578e-14
-8.61587e-15
1.69158e-14
-2.25544e-14
0
1.22515e-11
-1.45328e-12
3.09414e-13
-1.25624e-13
3.68685e-14
-4.39006e-14
-1.98611e-14
-1.57723e-14
-2.06298e-14
3.72819e-14
-1.54297e-14
3.48803e-14
-2.7751e-14
-1.95333e-15
7.48735e-14
-1.27139e-14
2.45654e-14
-2.57905e-15
-1.05675e-14
0
-1.58022e-11
1.5993e-12
-2.41858e-13
1.49948e-13
-2.77153e-14
2.84079e-14
1.65202e-14
1.99363e-14
9.69973e-15
-2.28178e-15
-4.30782e-15
-3.4306e-15
-9.48736e-16
2.72647e-14
-2.52053e-14
-5.52445e-14
-5.23443e-14
4.13934e-14
-1.06777e-14
2.71051e-14
1.02457e-11
-1.22201e-12
2.29199e-13
-9.80952e-14
1.58812e-14
8.13151e-15
1.32058e-14
-1.25022e-14
6.15285e-15
-1.94209e-14
7.17528e-15
2.0361e-14
-3.06258e-14
1.90712e-14
-3.25376e-14
4.62258e-14
1.81329e-14
5.81117e-15
-3.38352e-14
-2.71051e-14
5.28549e-12
-1.20841e-12
2.5838e-13
-5.49925e-14
3.45023e-15
1.1567e-14
1.36243e-14
-4.19656e-14
2.79115e-14
1.05921e-14
-1.24367e-14
2.12205e-15
2.81215e-14
-2.23013e-15
-5.30485e-14
-7.16894e-14
2.46999e-14
3.20879e-15
2.14689e-14
-2.71051e-14
-1.67238e-11
2.95553e-12
-6.72419e-13
2.80742e-13
-8.82291e-14
3.17934e-14
-8.00943e-15
1.59091e-14
4.99961e-14
-3.15284e-14
-1.04737e-14
4.17703e-14
-7.28196e-14
2.30195e-14
6.79675e-14
2.09786e-14
1.33495e-14
-4.2273e-14
3.82749e-14
0
1.34712e-11
-2.30039e-12
4.60397e-13
-2.17022e-13
6.50551e-14
2.01587e-14
-2.17171e-14
-2.29661e-14
8.08055e-15
2.29355e-15
1.5313e-14
-2.81461e-14
2.57116e-14
-2.93835e-14
-3.47999e-14
-1.97737e-14
6.8076e-15
1.83315e-14
7.27469e-15
0
-4.77049e-12
9.91989e-13
-2.4123e-13
1.23733e-13
-4.85721e-14
-6.45945e-15
3.63582e-15
4.5826e-14
1.48966e-15
1.50283e-14
-2.52908e-14
-1.33622e-14
1.23497e-14
1.70216e-14
-6.38004e-14
3.58381e-14
7.35952e-14
-1.28322e-14
-1.44894e-14
0
-2.87314e-12
3.89345e-13
-5.84697e-14
4.19489e-15
1.03834e-14
2.43849e-15
1.68607e-14
2.3762e-14
-1.28271e-14
-3.53857e-14
1.5726e-14
-1.16223e-14
3.5799e-14
-2.22001e-14
-8.05218e-15
6.3788e-15
-4.83764e-14
-6.55833e-15
2.90389e-14
0
1.12215e-11
-2.04816e-12
3.99136e-13
-1.53036e-13
2.74487e-14
-1.14025e-14
-2.71003e-14
-2.20214e-14
3.42164e-15
-1.28063e-15
1.16006e-14
-5.88278e-15
2.86673e-15
-3.54915e-14
4.00168e-14
3.74161e-14
4.00404e-15
-2.47636e-14
1.19709e-14
-2.71051e-14
-1.5748e-11
3.33896e-12
-7.43239e-13
3.02807e-13
-3.08341e-14
-1.49944e-14
-1.4839e-14
2.30137e-14
-2.24746e-14
-6.7919e-15
4.93169e-15
7.432e-15
-3.17329e-15
-4.31449e-14
3.07907e-14
5.08149e-14
-4.2931e-14
-6.7474e-15
5.02225e-14
0
9.94755e-12
-2.33094e-12
4.36704e-13
-1.7121e-13
2.14291e-14
-1.84503e-14
1.20684e-14
-4.0612e-15
8.10379e-15
1.35885e-14
-6.28235e-15
2.26354e-14
7.72013e-15
7.08594e-15
-2.77389e-14
-9.24433e-15
-2.28921e-14
4.4103e-14
1.48733e-14
-2.71051e-14
2.1684e-12
1.80859e-13
-2.60179e-14
-2.74566e-14
2.74897e-14
3.86151e-14
2.81972e-15
-4.10177e-15
7.40895e-15
-1.55039e-14
-9.63089e-15
-2.75132e-15
-7.17471e-16
1.25704e-14
2.69063e-14
4.80774e-15
3.95959e-16
-1.66273e-15
-2.38403e-14
0
-1.28749e-11
1.70488e-12
-3.58992e-13
1.12316e-13
-6.52817e-14
4.56762e-15
3.95562e-14
-5.38208e-14
1.17268e-14
2.44653e-14
-2.07304e-14
8.15241e-15
3.05646e-14
-1.27124e-14
-1.73604e-14
1.06344e-14
3.05821e-14
1.65743e-14
-2.27626e-14
0
1.45012e-11
-1.47057e-12
2.31087e-13
-6.90739e-14
3.64141e-14
3.28619e-14
-2.29941e-15
4.25566e-15
3.0933e-14
-8.2295e-15
4.84207e-15
7.85524e-15
-1.64072e-14
-2.09346e-14
1.5469e-14
-1.81725e-14
1.16952e-14
-1.85692e-14
3.87971e-14
0
-6.23416e-13
6.36329e-14
-1.93087e-14
2.47256e-15
-1.65871e-15
-2.16117e-14
6.83561e-15
1.03487e-14
-1.93472e-14
-1.18803e-14
-1.37223e-14
-1.55278e-14
1.69444e-14
7.25887e-14
-2.70291e-14
2.63144e-14
2.29707e-14
1.14409e-14
2.97629e-14
-5.42101e-14
-1.67238e-11
1.57511e-12
-2.73102e-13
1.49317e-13
-2.73288e-14
7.99523e-15
2.39738e-14
1.5709e-14
-2.68582e-15
5.38974e-15
2.68154e-16
1.73504e-14
-9.24204e-15
-6.1407e-14
-8.88516e-15
-1.04441e-14
3.8639e-14
1.13962e-14
3.66313e-14
0
1.13028e-11
-1.27394e-12
2.43945e-13
-1.0842e-13
2.71051e-14
0
0
0
-2.71051e-14
0
2.71051e-14
-2.71051e-14
0
0
0
-2.71051e-14
0
2.71051e-14
2.71051e-14
0
)
;

boundaryField
{
    movingWall
    {
        type            extrapolatedCalculated;
        value           nonuniform List<scalar> 
20
(
1.13028e-11
-1.27394e-12
2.43945e-13
-1.0842e-13
2.71051e-14
0
0
0
-2.71051e-14
0
2.71051e-14
-2.71051e-14
0
0
0
-2.71051e-14
0
2.71051e-14
2.71051e-14
0
)
;
    }
    fixedWalls
    {
        type            extrapolatedCalculated;
        value           nonuniform List<scalar> 
60
(
1.38236e-11
-2.37169e-11
5.28549e-12
1.22515e-11
-1.58022e-11
1.02457e-11
5.28549e-12
-1.67238e-11
1.34712e-11
-4.77049e-12
-2.87314e-12
1.12215e-11
-1.5748e-11
9.94755e-12
2.1684e-12
-1.28749e-11
1.45012e-11
-6.23416e-13
-1.67238e-11
1.13028e-11
0
2.71051e-14
0
0
2.71051e-14
-2.71051e-14
-2.71051e-14
0
0
0
0
-2.71051e-14
0
-2.71051e-14
0
0
0
-5.42101e-14
0
0
1.38236e-11
-1.62898e-12
3.30186e-13
-1.23314e-13
2.21808e-14
-1.85078e-14
1.18955e-14
-2.20609e-14
5.4096e-14
-5.11092e-14
4.98754e-14
-2.08661e-14
1.37023e-14
7.81314e-16
-2.46149e-14
5.1376e-15
2.5677e-14
-2.93004e-14
1.85842e-15
0
)
;
    }
    frontAndBack
    {
        type            empty;
    }
}


// ************************************************************************* //
