/*--------------------------------*- C++ -*----------------------------------*\
| =========                 |                                                 |
| \\      /  F ield         | OpenFOAM: The Open Source CFD Toolbox           |
|  \\    /   O peration     | Version:  2506                                  |
|   \\  /    A nd           | Website:  www.openfoam.com                      |
|    \\/     M anipulation  |                                                 |
\*---------------------------------------------------------------------------*/
FoamFile
{
    version     2.0;
    format      ascii;
    arch        "LSB;label=32;scalar=64";
    class       volScalarField;
    location    "6.375";
    object      enstrophyField;
}
// * * * * * * * * * * * * * * * * * * * * * * * * * * * * * * * * * * * * * //

dimensions      [0 0 -2 0 0 0 0];

internalField   nonuniform List<scalar> 
400
(
4.24457e-23
6.90255e-23
3.84662e-24
1.22999e-25
1.7246e-26
1.43678e-27
1.70497e-27
4.18261e-27
2.3666e-27
3.21557e-27
2.28673e-27
1.06807e-27
4.42725e-27
5.35945e-29
1.52478e-27
1.36182e-27
6.55834e-30
1.54773e-27
1.27386e-27
6.00698e-30
7.98209e-25
2.4685e-24
6.41902e-26
1.83349e-26
8.06205e-32
6.76601e-28
2.99356e-29
2.45447e-28
9.5207e-28
4.56167e-28
5.28314e-29
5.79208e-31
1.66363e-28
1.78502e-27
5.58994e-30
1.79884e-30
6.88669e-30
1.72938e-30
2.68861e-30
4.85814e-29
1.92017e-23
6.09241e-23
3.35662e-24
1.47817e-25
7.88108e-27
2.66948e-28
4.35385e-28
1.28317e-28
2.00188e-27
1.38725e-27
4.08597e-30
9.87108e-30
7.48085e-29
4.33483e-31
2.97804e-27
1.83329e-27
6.03066e-28
4.09596e-27
3.18186e-27
3.33508e-28
4.55028e-24
2.49031e-23
1.36152e-24
7.03381e-26
8.87658e-28
3.0314e-28
3.15272e-28
5.59626e-32
5.52736e-28
1.78304e-27
4.235e-28
2.09715e-27
8.38522e-29
2.13852e-29
2.75496e-28
8.58586e-29
4.25117e-27
2.49997e-28
1.76823e-28
9.34925e-29
3.99817e-29
1.69139e-25
3.53401e-27
1.80648e-27
8.70544e-28
6.43227e-27
1.81845e-26
1.3295e-26
1.44381e-26
5.91075e-27
5.92129e-27
1.56678e-27
3.04931e-27
5.79706e-27
7.92727e-28
9.72898e-28
1.51075e-27
5.3903e-30
4.73919e-28
6.55951e-29
1.17092e-23
3.34467e-23
1.67734e-24
9.54324e-26
5.71581e-27
2.44919e-28
1.92172e-28
2.03931e-29
7.42541e-29
9.38597e-29
2.77828e-31
1.31438e-29
6.79793e-32
2.21403e-30
8.12183e-28
2.06565e-27
7.2692e-28
6.61213e-28
1.46186e-29
5.32029e-29
2.79679e-23
5.24218e-23
2.97802e-24
1.06013e-25
2.27155e-26
3.49553e-27
1.11747e-26
9.09344e-27
3.9886e-27
4.61171e-27
1.10927e-26
7.16429e-27
3.17258e-27
5.45011e-27
8.64456e-29
9.25429e-29
3.08009e-28
7.45257e-28
4.88163e-27
5.21567e-28
2.9123e-24
6.38377e-24
4.11879e-25
1.14494e-26
7.28311e-28
1.0734e-27
2.27841e-27
7.38261e-29
4.65848e-29
1.51645e-27
2.39638e-28
1.35402e-27
1.61901e-27
1.25244e-27
2.20573e-30
4.83955e-27
1.25393e-27
7.65318e-29
6.41109e-28
3.36284e-28
7.73591e-24
1.26489e-23
7.17572e-25
2.33336e-26
1.22575e-26
6.50782e-28
1.61314e-27
7.14953e-27
4.23156e-27
5.28223e-28
7.39928e-27
2.08124e-27
2.46875e-27
3.21719e-27
3.68955e-28
4.7995e-27
1.74759e-27
1.05875e-28
3.39693e-30
1.2544e-28
2.22294e-23
3.86396e-23
2.29608e-24
8.88869e-26
1.12213e-26
4.68798e-28
2.30423e-27
8.7835e-29
1.02947e-27
8.64434e-28
1.48102e-28
2.0476e-29
1.09815e-28
2.73159e-27
4.56043e-29
2.3262e-30
7.33447e-28
7.304e-29
1.27038e-30
8.09736e-28
2.68224e-23
4.66194e-23
2.24026e-24
1.72393e-25
6.88789e-27
2.87266e-27
7.45363e-28
7.30115e-28
1.06256e-28
1.09509e-28
6.24957e-29
9.69756e-28
1.1414e-26
4.40692e-27
1.59113e-28
5.44895e-27
7.02198e-28
1.41352e-29
3.45414e-28
1.17605e-28
1.60173e-23
2.05696e-23
1.02734e-24
3.05742e-26
1.01844e-26
7.19349e-29
4.82029e-29
2.28654e-27
3.95203e-27
4.51905e-27
1.02766e-26
6.22265e-27
3.93918e-28
3.09931e-28
2.7028e-27
4.85963e-29
3.29449e-30
2.59909e-27
2.79541e-28
1.01491e-29
1.25749e-26
6.22561e-25
1.8175e-26
1.14778e-26
1.52881e-27
4.38503e-27
1.13015e-27
7.01138e-27
8.4292e-28
5.33987e-28
7.73823e-29
4.34194e-27
1.37942e-26
7.59802e-27
3.3563e-27
3.4767e-29
8.46595e-27
1.47639e-28
8.63995e-31
1.26623e-29
1.83782e-23
3.36047e-23
1.65137e-24
9.25512e-26
1.72238e-28
7.48498e-31
2.97063e-27
4.34151e-28
2.14273e-27
1.72639e-29
1.49336e-27
2.72328e-28
5.84998e-28
1.45483e-29
9.58433e-29
3.87819e-28
2.10215e-30
1.77343e-27
3.13353e-29
4.20027e-29
2.96635e-23
4.80946e-23
2.82714e-24
8.48018e-26
1.96862e-26
9.51608e-28
1.43678e-28
1.14642e-27
2.04567e-29
3.88592e-27
4.12257e-27
7.03956e-27
3.6783e-27
5.56094e-27
3.10708e-27
3.77643e-27
1.63153e-27
7.29789e-28
3.36e-28
4.86092e-28
5.76039e-24
1.27915e-23
9.33609e-25
9.81072e-27
2.28271e-26
2.33216e-27
1.39764e-27
4.75356e-27
2.59262e-27
5.5333e-27
8.74639e-27
3.41444e-27
2.48152e-27
1.28684e-27
5.24315e-28
2.44375e-28
3.02314e-27
8.43503e-28
3.58089e-28
2.12248e-29
8.18217e-25
3.34806e-24
2.54891e-25
1.02212e-27
3.51253e-27
1.37808e-28
2.8726e-27
9.06107e-28
8.76736e-28
1.0413e-27
5.99695e-28
4.11798e-28
1.07e-29
5.57712e-27
5.7139e-27
1.53904e-27
4.5098e-29
2.32647e-27
2.79736e-29
1.54981e-29
5.6653e-24
3.53447e-23
2.01416e-24
1.043e-25
8.65155e-27
1.24661e-29
8.06787e-30
1.57839e-28
1.46127e-27
2.03514e-27
4.03856e-27
3.93955e-27
1.63314e-27
4.2252e-28
7.72244e-31
3.10564e-27
2.05466e-27
2.32668e-27
1.24022e-30
1.05578e-29
1.1187e-24
4.84312e-24
3.37344e-25
7.44332e-27
8.25875e-27
1.2857e-27
1.42427e-27
9.65807e-28
5.34522e-27
6.31508e-27
7.27523e-27
6.30651e-27
2.99965e-27
1.77341e-28
2.23988e-29
4.15063e-28
5.14714e-28
1.98913e-29
2.54638e-30
9.69088e-28
1.43448e-23
2.96303e-23
1.29168e-24
1.00811e-25
8.19436e-29
2.8055e-27
1.86572e-27
2.55617e-27
2.17604e-27
1.86831e-27
1.31435e-27
1.18037e-27
3.32891e-28
1.84126e-28
1.47314e-28
1.75168e-27
3.59655e-28
9.24318e-30
2.74974e-29
2.2415e-29
)
;

boundaryField
{
    movingWall
    {
        type            calculated;
        value           nonuniform List<scalar> 
20
(
6.94919e-23
4.73919e-23
1.11551e-24
2.81313e-25
2.34893e-26
2.94616e-26
1.70222e-26
1.13277e-26
1.79354e-26
4.58265e-27
2.40036e-26
8.1414e-27
9.2909e-28
7.8515e-27
3.11083e-27
7.77356e-28
9.73455e-28
9.24318e-30
2.74974e-29
2.2415e-29
)
;
    }
    fixedWalls
    {
        type            calculated;
        value           nonuniform List<scalar> 
60
(
1.25222e-21
4.12843e-23
1.11705e-21
4.56627e-22
1.60258e-24
5.97061e-22
9.85344e-22
1.20993e-22
2.35027e-22
7.23978e-22
8.28887e-22
3.68133e-22
8.71552e-24
5.97043e-22
8.91488e-22
2.48059e-22
6.13059e-23
6.52243e-22
9.40118e-23
5.1822e-22
1.24322e-29
3.92315e-28
7.38091e-28
4.31146e-28
4.1695e-28
1.19948e-28
1.20163e-27
5.23893e-31
2.97333e-28
9.10714e-28
5.11269e-31
5.71824e-29
4.62167e-31
1.19082e-30
4.37954e-28
3.24906e-31
8.1562e-29
5.81075e-29
1.20782e-27
2.20764e-30
1.39825e-22
9.16694e-23
4.58446e-24
9.10649e-26
2.42722e-26
1.12389e-26
4.32472e-27
4.89697e-27
1.06407e-28
3.84539e-27
9.36781e-29
3.19334e-29
8.17045e-29
3.07835e-27
5.1273e-31
2.04326e-30
1.15347e-27
1.01779e-30
1.15893e-27
6.00698e-30
)
;
    }
    frontAndBack
    {
        type            empty;
    }
}


// ************************************************************************* //
