/*--------------------------------*- C++ -*----------------------------------*\
| =========                 |                                                 |
| \\      /  F ield         | OpenFOAM: The Open Source CFD Toolbox           |
|  \\    /   O peration     | Version:  2506                                  |
|   \\  /    A nd           | Website:  www.openfoam.com                      |
|    \\/     M anipulation  |                                                 |
\*---------------------------------------------------------------------------*/
FoamFile
{
    version     2.0;
    format      ascii;
    arch        "LSB;label=32;scalar=64";
    class       volScalarField;
    location    "6.375";
    object      flowTypeField;
}
// * * * * * * * * * * * * * * * * * * * * * * * * * * * * * * * * * * * * * //

dimensions      [0 0 0 0 0 0 0];

internalField   nonuniform List<scalar> 
400
(
0.445604
0.0658422
-0.0183555
0.209733
-0.378102
0.350102
0.0648575
-0.0806343
0.111814
0.167119
0.285479
0.194268
-0.0755519
0.0026509
0.0853721
0.0408921
0.801394
0.0790366
0.0685201
0.510495
0.932561
0.597606
0.70867
0.325486
0.982682
-0.25912
0.285136
0.573627
0.390461
0.447899
0.753239
0.820353
0.637282
0.213562
0.415833
0.694852
0.562007
0.773323
0.884112
0.763838
0.450244
0.0976931
0.0124226
0.137519
0.0338815
0.000941228
0.216943
0.111331
-0.0326938
0.124996
0.91302
0.57388
0.00151068
0.923553
0.0612721
-0.0989831
-0.262895
-0.109116
0.0675164
8.35322e-05
0.752906
0.17301
0.156872
0.101561
0.604245
0.547331
0.555582
0.861192
-0.00537935
0.239855
0.124315
0.183381
0.346202
0.303627
0.669671
0.503532
-0.066395
0.19616
0.480254
0.0140597
0.999232
0.836024
0.895256
0.694787
0.338687
-0.0310937
-0.169607
-0.199141
-0.0444754
0.00370238
0.00694897
-0.0106434
0.0392819
0.0358561
0.033311
0.280587
0.257904
0.903596
-0.132375
0.0397366
0.580095
0.102177
0.0942415
0.032773
0.0115451
0.401218
0.442544
0.752755
0.675716
0.504818
0.842256
0.71243
0.974961
0.814711
0.341192
0.159892
0.0736478
0.0927955
0.733779
0.601351
0.26532
0.0644439
-0.0404434
0.19478
-0.815091
0.227641
-0.102552
0.0239892
0.196609
0.113744
-0.0736466
-0.0993233
0.0693049
0.0381201
0.701716
0.695594
0.549495
-0.402766
-0.139364
0.177424
0.81982
0.302542
0.247935
0.438178
0.445811
0.189702
-0.233928
0.0395504
0.766314
0.263342
0.18916
0.300548
0.2555
0.349962
0.953344
-0.193704
0.108588
0.716959
0.492194
0.0641699
0.672925
0.167377
0.114474
0.299056
-0.240756
0.391993
0.0816749
-0.0562432
-0.115866
-0.152893
-0.0842409
-0.133021
-0.112942
0.0620968
0.268804
-0.115516
0.0754736
0.0779796
0.3448
0.432894
0.241862
0.0537699
-0.0321526
0.127047
-0.261357
0.42957
-0.248161
0.704402
-0.545561
0.0409134
0.19158
0.461145
0.236543
0.060172
0.844277
0.863666
0.505018
0.0481259
0.890711
-0.414841
0.144576
0.0223867
0.0306535
-0.15983
0.0409591
-0.364002
0.35572
0.474634
0.494685
0.56597
0.325038
0.125588
-0.342474
-0.069934
0.00354955
-0.280618
0.100502
0.294393
0.15681
0.423538
0.505697
0.0704719
0.0378098
0.257718
-0.54162
0.576198
0.658365
0.184822
-0.0251866
-0.162571
-0.0419687
0.0415399
-0.0115744
0.4343
0.348363
0.800101
0.141341
-0.139371
0.171129
0.771801
0.985673
0.631476
0.719869
0.33256
0.351624
-0.149059
-0.359482
-0.0530384
0.303877
0.394255
0.536044
-0.0652626
-0.222853
-0.0953216
0.0481387
0.797335
-0.0561832
0.106735
0.951084
0.0764559
0.436176
0.0510523
0.0286695
0.0387483
0.811683
0.906507
-0.416419
-0.0849229
-0.201852
0.721168
0.0125629
0.373576
-0.147134
0.787726
0.707686
0.325304
0.935288
0.207108
0.656236
0.605188
0.138134
0.0441194
-0.0812384
0.168811
-0.375553
0.53504
0.112112
0.115201
0.00525419
-0.083077
-0.114611
-0.0936415
-0.0484356
0.0710292
0.204315
-0.00028745
-0.050338
-0.306008
0.332378
-0.146482
0.713973
0.197814
0.0590866
0.530155
-0.322297
0.243164
0.295641
0.18463
0.114573
0.0360322
0.0482933
-0.00707505
-0.128198
-0.133986
0.00390085
0.407677
0.0684321
0.0158313
0.270876
0.061429
0.894767
0.438044
0.36938
0.759994
-0.0657187
0.517478
-0.172543
-0.522649
-0.00100478
-0.578638
-0.267916
-0.0572218
0.768047
-0.176509
-0.130599
0.283086
0.212648
-0.237217
0.819737
0.408742
0.579008
0.129316
0.0396244
0.107548
-0.190183
0.891529
0.501687
0.347529
0.103802
-0.171426
-0.0742623
-0.0457833
0.103315
0.603156
0.912233
0.0509453
-0.15101
-0.252641
0.894898
0.845848
0.893844
0.429046
0.37992
0.506516
-0.172097
0.0646753
0.123026
0.190101
0.0822057
-0.0231155
-0.0667411
-0.0341148
0.047118
0.626771
0.340418
0.000388644
0.429286
2.26378e-05
0.863037
-0.0274871
0.557806
0.0859725
0.132176
-0.0781004
0.871093
-0.128854
0.0973925
-0.275767
-0.0693514
-0.119744
0.1444
0.194449
0.0934771
0.302757
0.380497
0.0395248
0.313874
0.646692
0.532799
0.219087
)
;

boundaryField
{
    movingWall
    {
        type            calculated;
        value           nonuniform List<scalar> 
20
(
0.600609
0.10456
0.3584
-0.23216
0.355953
-0.0578626
0.0337478
-0.113626
-0.0526863
-0.0315539
0.0300421
0.0650725
0.0500591
0.0611663
0.134098
0.3133
0.305229
0.803046
0.635031
0.0408042
)
;
    }
    fixedWalls
    {
        type            calculated;
        value           nonuniform List<scalar> 
60
(
0.0618433
0.629661
0.0841522
0.168705
0.882832
0.104307
0.0400553
0.311859
0.16109
0.0309947
0.0207054
0.0712126
0.691634
0.0573071
0.0229697
0.181151
0.445517
0.113357
0.427084
0.0995427
0.403445
0.637989
3.80803e-05
0.00320247
0.405875
0.202539
0.136224
0.938554
0.481917
-0.488863
0.95945
0.702045
0.419722
0.931592
-0.0895275
0.49081
0.170229
0.776142
0.131639
0.543613
0.622783
0.164285
0.159487
0.452358
-0.258265
0.183608
0.0313625
-0.03375
0.685809
0.166281
0.696124
0.675481
0.57624
0.135478
0.932728
0.856614
0.100975
0.902344
0.00496813
0.34476
)
;
    }
    frontAndBack
    {
        type            empty;
    }
}


// ************************************************************************* //
