/*--------------------------------*- C++ -*----------------------------------*\
| =========                 |                                                 |
| \\      /  F ield         | OpenFOAM: The Open Source CFD Toolbox           |
|  \\    /   O peration     | Version:  2506                                  |
|   \\  /    A nd           | Website:  www.openfoam.com                      |
|    \\/     M anipulation  |                                                 |
\*---------------------------------------------------------------------------*/
FoamFile
{
    version     2.0;
    format      ascii;
    arch        "LSB;label=32;scalar=64";
    class       surfaceScalarField;
    location    "6.375";
    object      fluxField;
}
// * * * * * * * * * * * * * * * * * * * * * * * * * * * * * * * * * * * * * //

dimensions      [0 3 -1 0 0 0 0];

oriented        oriented;

internalField   nonuniform List<scalar> 
760
(
-5e-05
3.78547e-18
-5e-05
-8.07045e-19
-5e-05
1.8419e-19
-5e-05
-4.43811e-20
-5e-05
5.54521e-21
-5e-05
-4.62694e-21
-5e-05
-3.80239e-21
-5e-05
-5.51522e-21
-5e-05
-2.85396e-23
-5e-05
7.7523e-22
-5e-05
-1.08369e-21
-5e-05
-5.21653e-21
-5e-05
-3.35068e-21
-5e-05
1.95328e-22
-5e-05
6.22543e-22
-5e-05
1.2844e-21
-5e-05
-3.57024e-22
-5e-05
-5.48838e-22
-5e-05
4.64604e-22
-2.06236e-21
-5e-05
-2.58612e-18
-5e-05
5.53133e-19
-5e-05
-1.38036e-19
-5e-05
2.20656e-20
-5e-05
-9.32116e-21
-5e-05
-2.44464e-21
-5e-05
-5.96482e-21
-5e-05
-3.77812e-21
-5e-05
-7.22628e-22
-5e-05
1.1316e-21
-5e-05
-1.11343e-21
-5e-05
-2.15288e-21
-5e-05
-2.49331e-21
-5e-05
-2.99475e-21
-5e-05
-8.75611e-22
-5e-05
-1.12398e-21
-5e-05
-2.93536e-21
-5e-05
-3.95787e-21
-5e-05
-4.76892e-21
-4.15202e-21
-5e-05
-1.0891e-18
-5e-05
1.99151e-19
-5e-05
-5.99363e-20
-5e-05
4.60138e-21
-5e-05
-4.2203e-21
-5e-05
-2.69932e-21
-5e-05
-4.59944e-21
-5e-05
-1.59978e-21
-5e-05
-6.78123e-22
-5e-05
2.20241e-21
-5e-05
1.08267e-21
-5e-05
9.88195e-22
-5e-05
-2.66645e-21
-5e-05
-5.30727e-21
-5e-05
-4.06865e-21
-5e-05
-3.36445e-21
-5e-05
-2.15397e-21
-5e-05
-2.5473e-21
-5e-05
-5.6386e-21
-4.23662e-21
-5e-05
2.24459e-18
-5e-05
-5.12398e-19
-5e-05
1.11235e-19
-5e-05
-2.46297e-20
-5e-05
9.21711e-21
-5e-05
2.57739e-21
-5e-05
1.81098e-21
-5e-05
-3.94308e-21
-5e-05
-5.15744e-21
-5e-05
-4.23204e-21
-5e-05
-3.85741e-21
-5e-05
-4.83245e-21
-5e-05
-6.93775e-21
-5e-05
-7.2646e-21
-5e-05
-8.38668e-21
-5e-05
-3.17847e-21
-5e-05
-6.34909e-22
-5e-05
-6.44763e-22
-5e-05
-2.64189e-21
-3.64013e-21
-5e-05
-2.16983e-18
-5e-05
4.74364e-19
-5e-05
-1.07898e-19
-5e-05
3.07107e-20
-5e-05
-1.5257e-22
-5e-05
7.10197e-21
-5e-05
4.13006e-21
-5e-05
-1.79218e-21
-5e-05
-4.35133e-21
-5e-05
-7.34671e-21
-5e-05
-7.85322e-21
-5e-05
-7.63391e-21
-5e-05
-7.01345e-21
-5e-05
-6.73636e-21
-5e-05
-6.30133e-21
-5e-05
-2.58598e-22
-5e-05
4.66458e-22
-5e-05
-3.20418e-21
-5e-05
-2.66942e-21
-2.77287e-21
-5e-05
5.65645e-19
-5e-05
-1.02215e-19
-5e-05
3.69709e-20
-5e-05
2.58125e-21
-5e-05
3.97029e-21
-5e-05
2.03288e-21
-5e-05
3.30145e-21
-5e-05
3.65071e-21
-5e-05
1.53821e-21
-5e-05
-4.85522e-21
-5e-05
-4.98244e-21
-5e-05
-1.686e-21
-5e-05
-8.80195e-22
-5e-05
-2.00847e-21
-5e-05
-1.35814e-21
-5e-05
-1.99608e-21
-5e-05
-2.24303e-21
-5e-05
-5.32347e-21
-5e-05
-1.68254e-21
4.01838e-22
-5e-05
1.85311e-18
-5e-05
-3.83418e-19
-5e-05
9.84762e-20
-5e-05
-1.37481e-20
-5e-05
7.63882e-21
-5e-05
2.89175e-21
-5e-05
3.40607e-21
-5e-05
3.06114e-21
-5e-05
2.01622e-22
-5e-05
-4.12824e-21
-5e-05
-3.10919e-21
-5e-05
5.30513e-22
-5e-05
2.54117e-22
-5e-05
-5.57532e-22
-5e-05
2.90414e-22
-5e-05
-4.36982e-21
-5e-05
-7.37755e-21
-5e-05
-5.97407e-21
-5e-05
-1.40905e-21
2.99996e-21
-5e-05
-2.40013e-18
-5e-05
5.22043e-19
-5e-05
-1.20671e-19
-5e-05
2.9528e-20
-5e-05
-1.72847e-21
-5e-05
7.94835e-21
-5e-05
4.77391e-21
-5e-05
3.97727e-21
-5e-05
-1.05351e-21
-5e-05
-1.10584e-21
-5e-05
-2.61842e-21
-5e-05
-3.10995e-21
-5e-05
-4.65237e-21
-5e-05
-7.79765e-21
-5e-05
-3.33691e-21
-5e-05
-1.53161e-21
-5e-05
-3.43888e-21
-5e-05
-3.792e-21
-5e-05
-3.98381e-21
1.46014e-21
-5e-05
1.05539e-18
-5e-05
-2.43062e-19
-5e-05
6.08891e-20
-5e-05
-6.8217e-21
-5e-05
9.48752e-21
-5e-05
5.03966e-21
-5e-05
8.12326e-21
-5e-05
7.811e-21
-5e-05
2.02014e-21
-5e-05
5.73387e-22
-5e-05
-2.948e-21
-5e-05
-7.03654e-21
-5e-05
-7.12464e-21
-5e-05
-7.34587e-21
-5e-05
-1.92371e-21
-5e-05
1.83284e-21
-5e-05
1.7019e-21
-5e-05
-2.19339e-21
-5e-05
-4.95759e-21
-1.14327e-21
-5e-05
-1.54627e-19
-5e-05
3.7933e-20
-5e-05
6.78758e-22
-5e-05
1.06044e-20
-5e-05
8.18576e-21
-5e-05
5.1614e-21
-5e-05
7.68522e-21
-5e-05
4.68024e-21
-5e-05
3.72414e-22
-5e-05
-3.01919e-21
-5e-05
-6.32269e-21
-5e-05
-1.01168e-20
-5e-05
-3.68883e-21
-5e-05
4.25541e-21
-5e-05
4.37869e-21
-5e-05
2.18326e-21
-5e-05
-1.93e-21
-5e-05
-3.20805e-21
-5e-05
-3.62234e-21
-2.60419e-21
-5e-05
-9.19997e-19
-5e-05
2.19309e-19
-5e-05
-4.84987e-20
-5e-05
1.46012e-20
-5e-05
2.59586e-21
-5e-05
7.38589e-21
-5e-05
4.21519e-21
-5e-05
-8.35764e-22
-5e-05
-3.20677e-21
-5e-05
-2.07016e-21
-5e-05
-2.84477e-21
-5e-05
-2.90557e-21
-5e-05
2.1735e-21
-5e-05
8.00251e-21
-5e-05
4.76322e-21
-5e-05
1.5947e-21
-5e-05
-5.31784e-21
-5e-05
-1.63958e-21
-5e-05
4.83467e-22
-2.29925e-21
-5e-05
2.00257e-18
-5e-05
-4.44277e-19
-5e-05
9.97841e-20
-5e-05
-2.47064e-20
-5e-05
6.86219e-21
-5e-05
3.92564e-21
-5e-05
1.19499e-24
-5e-05
-5.50536e-21
-5e-05
-5.92085e-21
-5e-05
-3.20157e-22
-5e-05
2.90016e-21
-5e-05
5.30557e-21
-5e-05
7.16683e-22
-5e-05
-2.0966e-21
-5e-05
-3.54832e-21
-5e-05
-4.1985e-21
-5e-05
-5.77525e-21
-5e-05
5.8537e-22
-5e-05
2.99272e-21
-6.08295e-22
-5e-05
-1.88184e-18
-5e-05
3.94282e-19
-5e-05
-9.09422e-20
-5e-05
2.14916e-20
-5e-05
-9.32256e-22
-5e-05
3.02765e-21
-5e-05
-3.70975e-21
-5e-05
-7.7991e-21
-5e-05
-5.61865e-21
-5e-05
-1.69798e-21
-5e-05
1.23292e-21
-5e-05
1.858e-21
-5e-05
-7.93321e-22
-5e-05
-4.00997e-21
-5e-05
-5.85485e-21
-5e-05
-7.62506e-21
-5e-05
-3.95648e-21
-5e-05
-1.68685e-21
-5e-05
-9.96911e-22
-3.63645e-23
-5e-05
4.70889e-19
-5e-05
-9.48437e-20
-5e-05
2.10847e-20
-5e-05
-2.14491e-21
-5e-05
5.35728e-21
-5e-05
2.1637e-21
-5e-05
-3.75916e-21
-5e-05
-7.79156e-21
-5e-05
-4.75032e-21
-5e-05
-3.37913e-21
-5e-05
-1.57059e-21
-5e-05
-1.11742e-21
-5e-05
1.93003e-21
-5e-05
1.77148e-21
-5e-05
-1.58472e-22
-5e-05
-2.31108e-21
-5e-05
1.05324e-21
-5e-05
-2.52677e-21
-5e-05
-3.05794e-21
-2.52122e-22
-5e-05
1.22157e-18
-5e-05
-2.46165e-19
-5e-05
5.44819e-20
-5e-05
-1.36404e-20
-5e-05
9.61593e-23
-5e-05
-3.89876e-21
-5e-05
-6.07133e-21
-5e-05
-7.80171e-21
-5e-05
-4.92403e-21
-5e-05
-3.87598e-21
-5e-05
-2.40772e-21
-5e-05
-6.87831e-22
-5e-05
-1.79368e-22
-5e-05
-3.63366e-21
-5e-05
-6.82595e-21
-5e-05
-5.57433e-21
-5e-05
9.89898e-23
-5e-05
-4.15682e-22
-5e-05
8.16182e-22
-2.06051e-22
-5e-05
-2.22478e-18
-5e-05
4.93982e-19
-5e-05
-1.10077e-19
-5e-05
2.13028e-20
-5e-05
-1.63204e-20
-5e-05
-1.24106e-20
-5e-05
-1.04398e-20
-5e-05
-6.67894e-21
-5e-05
-3.84455e-21
-5e-05
-6.59939e-22
-5e-05
1.59367e-21
-5e-05
2.0381e-21
-5e-05
8.6488e-22
-5e-05
-3.1781e-21
-5e-05
-1.11164e-20
-5e-05
-1.08939e-20
-5e-05
-5.907e-21
-5e-05
-2.63269e-21
-5e-05
1.08561e-21
-8.48632e-22
-5e-05
1.78383e-18
-5e-05
-3.87971e-19
-5e-05
9.84293e-20
-5e-05
-2.40447e-20
-5e-05
-4.449e-21
-5e-05
-1.21133e-20
-5e-05
-7.35112e-21
-5e-05
-5.71235e-21
-5e-05
-5.81928e-21
-5e-05
-2.05738e-21
-5e-05
1.21052e-21
-5e-05
1.96381e-21
-5e-05
2.67447e-21
-5e-05
1.54262e-21
-5e-05
-2.90902e-21
-5e-05
-4.54313e-21
-5e-05
-3.85246e-21
-5e-05
-4.6423e-21
-5e-05
-3.85324e-21
-3.16608e-21
-5e-05
1.59686e-18
-5e-05
-3.43234e-19
-5e-05
8.32642e-20
-5e-05
-1.97107e-20
-5e-05
-4.14677e-22
-5e-05
-5.40291e-21
-5e-05
-5.06736e-21
-5e-05
-4.1891e-21
-5e-05
-4.83679e-21
-5e-05
-2.97008e-21
-5e-05
-3.43057e-21
-5e-05
-3.88194e-21
-5e-05
-2.54016e-21
-5e-05
-2.18162e-21
-5e-05
1.89779e-23
-5e-05
-1.97656e-22
-5e-05
-1.0336e-21
-5e-05
-3.91603e-21
-5e-05
-6.1118e-21
-3.74559e-21
-5e-05
-3.03514e-18
-5e-05
6.58052e-19
-5e-05
-1.56367e-19
-5e-05
3.05531e-20
-5e-05
-1.36085e-20
-5e-05
-4.77745e-21
-5e-05
-7.55907e-21
-5e-05
-2.84903e-21
-5e-05
-6.71456e-22
-5e-05
1.34744e-21
-5e-05
6.70385e-23
-5e-05
-2.43865e-21
-5e-05
-2.31051e-21
-5e-05
-1.79923e-21
-5e-05
-2.22129e-21
-5e-05
-2.61103e-21
-5e-05
-3.89277e-21
-5e-05
-3.92722e-21
-5e-05
-4.39471e-21
-1.50908e-21
-5e-05
-5e-05
-5e-05
-5e-05
-5e-05
-5e-05
-5e-05
-5e-05
-5e-05
-5e-05
-5e-05
-5e-05
-5e-05
-5e-05
-5e-05
-5e-05
-5e-05
-5e-05
-5e-05
)
;

boundaryField
{
    movingWall
    {
        type            calculated;
        value           uniform -0;
    }
    fixedWalls
    {
        type            calculated;
        value           nonuniform List<scalar> 
60
(
5e-05
5e-05
5e-05
5e-05
5e-05
5e-05
5e-05
5e-05
5e-05
5e-05
5e-05
5e-05
5e-05
5e-05
5e-05
5e-05
5e-05
5e-05
5e-05
5e-05
-5e-05
-5e-05
-5e-05
-5e-05
-5e-05
-5e-05
-5e-05
-5e-05
-5e-05
-5e-05
-5e-05
-5e-05
-5e-05
-5e-05
-5e-05
-5e-05
-5e-05
-5e-05
-5e-05
-5e-05
0
0
0
0
0
0
0
0
0
0
0
0
0
0
0
0
0
0
0
0
)
;
    }
    frontAndBack
    {
        type            empty;
    }
}


// ************************************************************************* //
