/*--------------------------------*- C++ -*----------------------------------*\
| =========                 |                                                 |
| \\      /  F ield         | OpenFOAM: The Open Source CFD Toolbox           |
|  \\    /   O peration     | Version:  2506                                  |
|   \\  /    A nd           | Website:  www.openfoam.com                      |
|    \\/     M anipulation  |                                                 |
\*---------------------------------------------------------------------------*/
FoamFile
{
    version     2.0;
    format      ascii;
    arch        "LSB;label=32;scalar=64";
    class       volTensorField;
    location    "6.375";
    object      gradU;
}
// * * * * * * * * * * * * * * * * * * * * * * * * * * * * * * * * * * * * * //

dimensions      [0 0 -1 0 0 0 0];

internalField   nonuniform List<tensor> 
400
(
(-1.32815e-12 9.97259e-12 0 7.58942e-13 1.51419e-11 0 0 0 0)
(1.5992e-12 -1.20748e-11 0 -3.25261e-13 -3.22818e-12 0 0 0 0)
(-4.06576e-13 2.58393e-12 0 -1.89735e-13 7.36762e-13 0 0 0 0)
(5.42101e-14 -6.04402e-13 0 -1.0842e-13 -1.77525e-13 0 0 0 0)
(0 1.3151e-13 0 -5.42101e-14 2.21808e-14 0 0 0 0)
(0 -2.77096e-14 0 -8.13152e-14 -1.85078e-14 0 0 0 0)
(2.71051e-14 4.18451e-15 0 -5.42101e-14 -1.52096e-14 0 0 0 0)
(0 1.01465e-14 0 -8.13152e-14 -2.20609e-14 0 0 0 0)
(5.42101e-14 1.45882e-14 0 -5.42101e-14 -1.14158e-16 0 0 0 0)
(-5.42101e-14 -1.12079e-15 0 -8.13152e-14 3.10092e-15 0 0 0 0)
(5.42101e-14 -1.36878e-14 0 -8.13152e-14 -4.33475e-15 0 0 0 0)
(0 -7.99166e-15 0 -5.42101e-14 -2.08661e-14 0 0 0 0)
(2.71051e-14 1.27832e-14 0 -8.13152e-14 -1.34027e-14 0 0 0 0)
(0 1.03532e-14 0 0 7.81314e-16 0 0 0 0)
(-2.71051e-14 1.01265e-15 0 -5.42101e-14 2.49017e-15 0 0 0 0)
(0 -2.02151e-15 0 -5.42101e-14 5.1376e-15 0 0 0 0)
(2.71051e-14 -3.6217e-15 0 0 -1.42809e-15 0 0 0 0)
(-2.71051e-14 1.42674e-15 0 -5.42101e-14 -2.19535e-15 0 0 0 0)
(0 -3.73519e-15 0 -5.42101e-14 1.85842e-15 0 0 0 0)
(0 -3.46611e-15 0 0 -8.24942e-15 0 0 0 0)
(1.78893e-12 1.94112e-12 0 6.77626e-13 -2.54864e-11 0 0 0 0)
(-2.52077e-12 -2.33036e-12 0 -1.0842e-13 5.44071e-12 0 0 0 0)
(6.23416e-13 4.66722e-13 0 1.0842e-13 -1.28891e-12 0 0 0 0)
(0 -1.10178e-13 0 8.13152e-14 2.65787e-13 0 0 0 0)
(5.42101e-14 2.75066e-14 0 2.71051e-14 -5.94655e-14 0 0 0 0)
(0 -9.68085e-15 0 2.71051e-14 8.7292e-15 0 0 0 0)
(0 -7.73765e-15 0 0 -8.64971e-15 0 0 0 0)
(-5.42101e-14 4.94893e-15 0 2.71051e-14 6.94843e-15 0 0 0 0)
(5.42101e-14 1.05737e-14 0 5.42101e-14 -2.77635e-15 0 0 0 0)
(-5.42101e-14 -3.0998e-15 0 2.71051e-14 1.42547e-15 0 0 0 0)
(5.42101e-14 -1.02792e-14 0 0 -1.18968e-16 0 0 0 0)
(0 -1.0763e-15 0 0 1.22546e-14 0 0 0 0)
(-5.42101e-14 8.8643e-15 0 2.71051e-14 3.42948e-15 0 0 0 0)
(5.42101e-14 5.53968e-15 0 -5.42101e-14 -1.27603e-14 0 0 0 0)
(0 3.34363e-15 0 0 -5.99262e-15 0 0 0 0)
(0 -1.89675e-15 0 0 -9.6335e-15 0 0 0 0)
(0 -3.71125e-15 0 0 -1.03133e-14 0 0 0 0)
(0 1.85977e-15 0 0 -1.36361e-14 0 0 0 0)
(2.71051e-14 -2.31888e-15 0 0 -2.09341e-14 0 0 0 0)
(5.42101e-14 9.85712e-15 0 0 -8.35867e-15 0 0 0 0)
(-7.04731e-13 -1.00731e-11 0 -3.87602e-12 5.98807e-12 0 0 0 0)
(9.75782e-13 1.21227e-11 0 1.0842e-12 -1.41593e-12 0 0 0 0)
(-2.71051e-13 -2.59099e-12 0 0 3.12398e-13 0 0 0 0)
(5.42101e-14 6.25037e-13 0 8.13152e-14 -6.98567e-14 0 0 0 0)
(-2.71051e-14 -1.25547e-13 0 0 2.04034e-14 0 0 0 0)
(0 2.31062e-14 0 0 -1.01871e-15 0 0 0 0)
(2.71051e-14 2.40375e-15 0 -2.71051e-14 5.4615e-15 0 0 0 0)
(0 1.60198e-14 0 0 8.71334e-15 0 0 0 0)
(2.71051e-14 9.0652e-15 0 -5.42101e-14 1.78019e-16 0 0 0 0)
(-2.71051e-14 1.53659e-15 0 5.42101e-14 4.28327e-15 0 0 0 0)
(-5.42101e-14 -2.85866e-15 0 0 8.7844e-15 0 0 0 0)
(0 -4.44322e-15 0 0 1.25643e-14 0 0 0 0)
(0 -1.22318e-14 0 0 -6.92581e-16 0 0 0 0)
(2.71051e-14 9.3111e-16 0 0 -9.25008e-15 0 0 0 0)
(0 4.13948e-15 0 8.13152e-14 -1.27722e-14 0 0 0 0)
(0 -6.34223e-15 0 5.42101e-14 -8.9619e-15 0 0 0 0)
(0 -7.62435e-15 0 2.71051e-14 3.12556e-15 0 0 0 0)
(0 -9.19401e-15 0 8.13152e-14 5.64228e-15 0 0 0 0)
(-2.71051e-14 1.54229e-15 0 8.13152e-14 -3.47874e-15 0 0 0 0)
(0 2.58266e-14 0 0 -3.38386e-16 0 0 0 0)
(-1.0842e-12 6.51327e-12 0 3.49655e-12 1.33348e-11 0 0 0 0)
(1.38236e-12 -8.00603e-12 0 -9.48677e-13 -2.8462e-12 0 0 0 0)
(-3.79471e-13 1.81279e-12 0 1.6263e-13 6.84685e-13 0 0 0 0)
(0 -4.02173e-13 0 -2.71051e-14 -1.16924e-13 0 0 0 0)
(-2.71051e-14 9.63446e-14 0 5.42101e-14 5.37497e-14 0 0 0 0)
(-5.42101e-14 -2.46228e-14 0 0 2.11068e-14 0 0 0 0)
(-5.42101e-14 1.9944e-15 0 2.71051e-14 2.56417e-14 0 0 0 0)
(0 -3.34552e-16 0 0 -9.37319e-15 0 0 0 0)
(0 6.14358e-15 0 -2.71051e-14 -1.79173e-14 0 0 0 0)
(5.42101e-14 5.50659e-15 0 -5.42101e-14 -2.57378e-14 0 0 0 0)
(0 -1.99822e-15 0 2.71051e-14 -1.97603e-14 0 0 0 0)
(5.42101e-14 -1.05533e-14 0 5.42101e-14 -2.32826e-14 0 0 0 0)
(0 -1.29501e-14 0 0 -1.70852e-14 0 0 0 0)
(0 -6.53991e-15 0 0 -7.82929e-15 0 0 0 0)
(8.13152e-14 3.63182e-15 0 2.71051e-14 -1.72721e-14 0 0 0 0)
(0 1.4001e-14 0 2.71051e-14 7.43928e-16 0 0 0 0)
(2.71051e-14 1.08929e-14 0 -8.13152e-14 6.07624e-15 0 0 0 0)
(0 -4.74453e-15 0 -2.71051e-14 7.61016e-15 0 0 0 0)
(-2.71051e-14 -8.29955e-15 0 -2.71051e-14 1.19869e-14 0 0 0 0)
(0 1.36742e-14 0 0 2.38595e-15 0 0 0 0)
(1.84314e-12 4.15518e-13 0 4.06576e-13 -1.76577e-11 0 0 0 0)
(-2.35814e-12 -5.27406e-13 0 5.42101e-14 3.94705e-12 0 0 0 0)
(6.23416e-13 1.38282e-13 0 5.42101e-14 -8.76533e-13 0 0 0 0)
(-8.13152e-14 -5.89783e-15 0 5.42101e-14 2.21362e-13 0 0 0 0)
(0 1.24838e-14 0 5.42101e-14 -3.74787e-14 0 0 0 0)
(0 -5.00176e-15 0 1.0842e-13 1.80983e-14 0 0 0 0)
(0 -2.80763e-14 0 1.6263e-13 9.2763e-15 0 0 0 0)
(0 -2.75391e-14 0 1.35525e-13 8.60358e-15 0 0 0 0)
(0 -7.29944e-15 0 1.6263e-13 3.22444e-15 0 0 0 0)
(0 -3.06472e-16 0 1.0842e-13 -1.24587e-14 0 0 0 0)
(0 -4.03395e-16 0 1.0842e-13 -1.59832e-14 0 0 0 0)
(0 -1.76806e-15 0 5.42101e-14 -1.12059e-14 0 0 0 0)
(0 3.22147e-15 0 8.13152e-14 -3.02795e-16 0 0 0 0)
(2.71051e-14 7.44183e-16 0 1.0842e-13 2.11293e-15 0 0 0 0)
(-2.71051e-14 1.27127e-14 0 -2.71051e-14 8.34141e-15 0 0 0 0)
(-5.42101e-14 1.70061e-14 0 -2.71051e-14 1.16795e-14 0 0 0 0)
(-5.42101e-14 -7.58113e-16 0 5.42101e-14 4.40547e-15 0 0 0 0)
(5.42101e-14 -3.28338e-15 0 0 -1.02376e-14 0 0 0 0)
(0 -3.68192e-15 0 2.71051e-14 -1.10128e-16 0 0 0 0)
(0 1.14538e-14 0 0 3.46905e-15 0 0 0 0)
(-6.77626e-13 -7.1974e-12 0 -2.35814e-12 1.09419e-11 0 0 0 0)
(1.0842e-12 8.77515e-12 0 5.96311e-13 -2.30632e-12 0 0 0 0)
(-3.52366e-13 -1.91289e-12 0 -8.13152e-14 5.79477e-13 0 0 0 0)
(2.71051e-14 4.36881e-13 0 0 -1.12518e-13 0 0 0 0)
(0 -1.06919e-13 0 0 1.64914e-14 0 0 0 0)
(2.71051e-14 2.21323e-14 0 0 -2.02764e-14 0 0 0 0)
(2.71051e-14 -7.50035e-15 0 -2.71051e-14 -3.31442e-15 0 0 0 0)
(-2.71051e-14 -6.38641e-15 0 0 2.17716e-14 0 0 0 0)
(-2.71051e-14 -1.49187e-14 0 -2.71051e-14 2.35582e-14 0 0 0 0)
(-2.71051e-14 -1.37011e-14 0 0 9.96595e-15 0 0 0 0)
(0 -7.45423e-16 0 0 1.14831e-14 0 0 0 0)
(0 5.12714e-15 0 0 2.37916e-14 0 0 0 0)
(-5.42101e-14 3.68726e-16 0 0 2.4533e-14 0 0 0 0)
(0 2.1043e-15 0 0 1.89116e-14 0 0 0 0)
(-5.42101e-14 1.31984e-14 0 -2.71051e-14 1.97728e-14 0 0 0 0)
(5.42101e-14 1.0065e-14 0 -5.42101e-14 -6.94995e-15 0 0 0 0)
(2.71051e-14 -1.10242e-14 0 2.71051e-14 -1.0838e-14 0 0 0 0)
(2.71051e-14 -9.26013e-15 0 2.71051e-14 -8.47718e-15 0 0 0 0)
(-2.71051e-14 5.40715e-15 0 0 3.94753e-15 0 0 0 0)
(-2.71051e-14 1.03153e-14 0 0 1.26988e-14 0 0 0 0)
(1.35525e-13 9.05112e-12 0 1.57209e-12 5.14984e-12 0 0 0 0)
(-8.13152e-14 -1.08898e-11 0 -6.50521e-13 -1.12481e-12 0 0 0 0)
(0 2.33208e-12 0 -1.0842e-13 2.46021e-13 0 0 0 0)
(0 -5.68883e-13 0 -1.0842e-13 -6.53175e-14 0 0 0 0)
(0 1.04725e-13 0 -1.0842e-13 1.46741e-14 0 0 0 0)
(0 -2.48076e-14 0 -1.0842e-13 3.43549e-15 0 0 0 0)
(0 1.39717e-14 0 -1.35525e-13 4.18448e-16 0 0 0 0)
(-2.71051e-14 -6.66557e-16 0 -1.35525e-13 -2.35828e-15 0 0 0 0)
(2.71051e-14 -1.91051e-14 0 -1.0842e-13 -5.34636e-15 0 0 0 0)
(0 -1.23815e-14 0 -1.0842e-13 2.90795e-15 0 0 0 0)
(-2.71051e-14 1.34223e-14 0 -1.35525e-13 7.49302e-15 0 0 0 0)
(0 1.12819e-14 0 -1.0842e-13 8.86607e-15 0 0 0 0)
(2.71051e-14 -1.6586e-15 0 -8.13152e-14 4.53725e-15 0 0 0 0)
(0 -4.01606e-15 0 -1.0842e-13 5.80377e-15 0 0 0 0)
(-5.42101e-14 -1.31488e-14 0 0 6.5942e-15 0 0 0 0)
(-5.42101e-14 -1.36046e-14 0 0 -9.49495e-15 0 0 0 0)
(5.42101e-14 -2.28535e-15 0 -2.71051e-14 -2.05381e-14 0 0 0 0)
(0 1.15021e-14 0 -2.71051e-14 -2.60238e-15 0 0 0 0)
(2.71051e-14 1.74941e-14 0 -8.13152e-14 1.09396e-15 0 0 0 0)
(-2.71051e-14 -5.19253e-15 0 2.71051e-14 1.03925e-14 0 0 0 0)
(2.71051e-13 -3.17236e-12 0 -7.58942e-13 -1.7013e-11 0 0 0 0)
(-6.77626e-13 3.87132e-12 0 2.98156e-13 3.62184e-12 0 0 0 0)
(2.1684e-13 -8.53401e-13 0 5.42101e-14 -8.76588e-13 0 0 0 0)
(1.0842e-13 2.05533e-13 0 5.42101e-14 1.73104e-13 0 0 0 0)
(-5.42101e-14 -3.81657e-14 0 0 -3.74692e-14 0 0 0 0)
(0 7.87661e-15 0 5.42101e-14 2.02264e-14 0 0 0 0)
(0 -1.32941e-14 0 5.42101e-14 5.47136e-15 0 0 0 0)
(0 -1.21512e-14 0 0 3.66452e-15 0 0 0 0)
(5.42101e-14 -9.65244e-15 0 0 -5.02052e-15 0 0 0 0)
(-5.42101e-14 -8.61688e-16 0 5.42101e-14 1.20896e-14 0 0 0 0)
(0 5.2127e-15 0 2.71051e-14 1.96307e-15 0 0 0 0)
(5.42101e-14 2.17136e-15 0 5.42101e-14 -1.45618e-14 0 0 0 0)
(-5.42101e-14 -2.69358e-15 0 5.42101e-14 -1.96259e-14 0 0 0 0)
(5.42101e-14 4.16125e-15 0 5.42101e-14 -2.89605e-14 0 0 0 0)
(8.13152e-14 -2.10035e-15 0 0 -1.45093e-14 0 0 0 0)
(0 -1.70672e-14 0 8.13152e-14 1.13529e-14 0 0 0 0)
(0 -4.13163e-15 0 -5.42101e-14 1.57547e-14 0 0 0 0)
(-5.42101e-14 1.23719e-14 0 0 8.72827e-15 0 0 0 0)
(5.42101e-14 1.8402e-14 0 5.42101e-14 -1.02991e-14 0 0 0 0)
(0 -1.17115e-15 0 -2.71051e-14 -6.15932e-15 0 0 0 0)
(-3.52366e-13 -4.34e-12 0 -4.06576e-13 1.38221e-11 0 0 0 0)
(7.58942e-13 5.24653e-12 0 2.1684e-13 -3.06042e-12 0 0 0 0)
(-2.71051e-13 -1.11666e-12 0 8.13152e-14 7.2624e-13 0 0 0 0)
(-8.13152e-14 2.70236e-13 0 5.42101e-14 -1.45399e-13 0 0 0 0)
(2.71051e-14 -4.81528e-14 0 1.0842e-13 4.4864e-14 0 0 0 0)
(2.71051e-14 1.81329e-14 0 5.42101e-14 -1.16347e-14 0 0 0 0)
(-2.71051e-14 -2.59019e-15 0 5.42101e-14 1.33974e-14 0 0 0 0)
(-2.71051e-14 -1.11584e-14 0 1.0842e-13 1.53349e-14 0 0 0 0)
(0 -1.068e-14 0 8.13152e-14 1.22946e-14 0 0 0 0)
(0 -5.39795e-15 0 2.71051e-14 6.71691e-15 0 0 0 0)
(2.71051e-14 -1.32291e-14 0 1.0842e-13 -1.31833e-15 0 0 0 0)
(0 -1.03072e-14 0 5.42101e-14 -1.57064e-14 0 0 0 0)
(2.71051e-14 -1.60572e-14 0 5.42101e-14 -9.88908e-15 0 0 0 0)
(-2.71051e-14 1.10057e-15 0 8.13152e-14 1.80713e-15 0 0 0 0)
(-2.71051e-14 2.71645e-14 0 0 5.65283e-15 0 0 0 0)
(-2.71051e-14 1.66594e-14 0 -8.13152e-14 1.34578e-14 0 0 0 0)
(-2.71051e-14 -4.90994e-15 0 5.42101e-14 2.05631e-14 0 0 0 0)
(0 -1.45516e-14 0 0 6.39442e-15 0 0 0 0)
(0 2.6065e-15 0 0 -3.89512e-15 0 0 0 0)
(0 1.12658e-14 0 2.71051e-14 -1.04136e-14 0 0 0 0)
(8.13152e-14 7.58932e-12 0 9.21572e-13 -4.84008e-12 0 0 0 0)
(-1.35525e-13 -9.22454e-12 0 -4.33681e-13 1.12398e-12 0 0 0 0)
(0 2.06162e-12 0 -8.13152e-14 -2.40841e-13 0 0 0 0)
(5.42101e-14 -4.75842e-13 0 -5.42101e-14 6.97045e-14 0 0 0 0)
(-5.42101e-14 9.55982e-14 0 -5.42101e-14 -5.20705e-15 0 0 0 0)
(0 -2.35899e-14 0 -5.42101e-14 4.86949e-16 0 0 0 0)
(0 1.36755e-14 0 -5.42101e-14 -1.75218e-15 0 0 0 0)
(5.42101e-14 -1.32541e-14 0 0 -1.25231e-14 0 0 0 0)
(0 -1.82705e-14 0 2.71051e-14 -6.59089e-15 0 0 0 0)
(2.71051e-14 -1.44746e-14 0 2.71051e-14 -1.43703e-14 0 0 0 0)
(0 -1.72106e-14 0 0 -1.34987e-14 0 0 0 0)
(0 -6.39938e-15 0 0 -1.23211e-14 0 0 0 0)
(0 1.48199e-14 0 0 1.37432e-14 0 0 0 0)
(-2.71051e-14 1.97032e-14 0 -5.42101e-14 4.64051e-14 0 0 0 0)
(-8.13152e-14 9.55032e-15 0 0 2.52096e-14 0 0 0 0)
(2.71051e-14 -2.15694e-15 0 0 1.40169e-15 0 0 0 0)
(8.13152e-14 -1.1195e-14 0 2.71051e-14 -1.45276e-14 0 0 0 0)
(0 -1.20864e-14 0 0 -4.05861e-15 0 0 0 0)
(-2.71051e-14 1.59398e-15 0 0 5.34101e-15 0 0 0 0)
(0 1.31376e-14 0 -2.71051e-14 -5.84365e-15 0 0 0 0)
(1.89735e-13 -8.0561e-12 0 -7.31836e-13 -3.06148e-12 0 0 0 0)
(-3.25261e-13 9.84576e-12 0 1.89735e-13 7.25504e-13 0 0 0 0)
(1.35525e-13 -2.17093e-12 0 -5.42101e-14 -1.9671e-13 0 0 0 0)
(0 5.0587e-13 0 -8.13152e-14 1.59873e-14 0 0 0 0)
(2.71051e-14 -1.1737e-13 0 0 -2.23596e-14 0 0 0 0)
(0 2.15878e-14 0 -5.42101e-14 8.89794e-15 0 0 0 0)
(2.71051e-14 -1.56002e-14 0 -5.42101e-14 -1.38801e-14 0 0 0 0)
(5.42101e-14 -1.59972e-14 0 -5.42101e-14 -2.2064e-14 0 0 0 0)
(0 -1.25272e-14 0 -2.71051e-14 -1.43167e-14 0 0 0 0)
(-2.71051e-14 -1.23058e-14 0 -2.71051e-14 3.79612e-15 0 0 0 0)
(0 -1.118e-14 0 0 1.39117e-14 0 0 0 0)
(-2.71051e-14 1.69348e-14 0 -2.71051e-14 2.8845e-14 0 0 0 0)
(0 4.2669e-14 0 -1.0842e-13 2.34493e-14 0 0 0 0)
(-2.71051e-14 1.25669e-14 0 -8.13152e-14 1.49884e-14 0 0 0 0)
(0 -1.78389e-14 0 0 1.5381e-15 0 0 0 0)
(0 -2.30778e-14 0 8.13152e-14 -2.35426e-15 0 0 0 0)
(-2.71051e-14 -1.03702e-14 0 2.71051e-14 -1.35514e-14 0 0 0 0)
(0 5.31698e-15 0 0 6.27385e-15 0 0 0 0)
(0 8.21464e-16 0 2.71051e-14 1.64232e-14 0 0 0 0)
(0 1.17685e-14 0 2.71051e-14 1.21974e-15 0 0 0 0)
(-4.87891e-13 5.25334e-12 0 -4.06576e-13 1.16903e-11 0 0 0 0)
(5.96311e-13 -6.35977e-12 0 5.42101e-14 -2.65435e-12 0 0 0 0)
(-1.89735e-13 1.3521e-12 0 -8.13152e-14 5.93131e-13 0 0 0 0)
(0 -3.01492e-13 0 -5.42101e-14 -1.57231e-13 0 0 0 0)
(0 8.85089e-14 0 -5.42101e-14 1.70653e-14 0 0 0 0)
(0 -1.51105e-14 0 -2.71051e-14 -1.3841e-14 0 0 0 0)
(0 -1.72864e-14 0 -2.71051e-14 -1.6856e-14 0 0 0 0)
(0 -1.36907e-14 0 -8.13152e-14 -1.86784e-14 0 0 0 0)
(2.71051e-14 7.58967e-15 0 -8.13152e-14 -1.08563e-14 0 0 0 0)
(0 1.37538e-14 0 -8.13152e-14 7e-15 0 0 0 0)
(0 7.83829e-15 0 -1.35525e-13 2.29797e-14 0 0 0 0)
(-2.71051e-14 3.13825e-15 0 -1.0842e-13 3.28446e-14 0 0 0 0)
(0 9.63347e-16 0 -2.71051e-14 -5.82726e-15 0 0 0 0)
(0 -2.20804e-15 0 -2.71051e-14 -4.03965e-14 0 0 0 0)
(8.13152e-14 -7.79235e-15 0 -8.13152e-14 -3.32462e-14 0 0 0 0)
(5.42101e-14 -1.72464e-14 0 -2.71051e-14 -2.31728e-14 0 0 0 0)
(0 -2.5669e-15 0 0 -1.82964e-15 0 0 0 0)
(-2.71051e-14 1.78883e-14 0 -5.42101e-14 8.89981e-15 0 0 0 0)
(0 -3.46013e-15 0 -2.71051e-14 1.0037e-14 0 0 0 0)
(-2.71051e-14 -4.50535e-15 0 0 6.76382e-15 0 0 0 0)
(-1.89735e-13 9.79825e-13 0 1.13841e-12 -1.55376e-11 0 0 0 0)
(-2.71051e-14 -1.25138e-12 0 -1.35525e-13 3.35424e-12 0 0 0 0)
(2.71051e-14 3.26182e-13 0 1.35525e-13 -7.62905e-13 0 0 0 0)
(1.0842e-13 -7.01956e-14 0 8.13152e-14 1.84792e-13 0 0 0 0)
(0 2.60194e-14 0 8.13152e-14 -3.11778e-14 0 0 0 0)
(0 -1.23335e-14 0 8.13152e-14 -3.59193e-15 0 0 0 0)
(0 -2.04376e-14 0 2.71051e-14 -1.48438e-14 0 0 0 0)
(2.71051e-14 -9.99753e-15 0 1.0842e-13 -9.17498e-15 0 0 0 0)
(-2.71051e-14 1.31511e-14 0 5.42101e-14 1.20881e-15 0 0 0 0)
(0 2.15303e-14 0 5.42101e-14 -5.51128e-15 0 0 0 0)
(0 1.46646e-14 0 2.71051e-14 -6.66895e-15 0 0 0 0)
(2.71051e-14 -1.18722e-14 0 8.13152e-14 -1.37903e-14 0 0 0 0)
(0 -3.0572e-14 0 1.35525e-13 -6.04002e-15 0 0 0 0)
(-2.71051e-14 -1.4852e-14 0 1.0842e-13 -7.65348e-15 0 0 0 0)
(2.71051e-14 -6.15245e-16 0 8.13152e-14 -9.22611e-15 0 0 0 0)
(5.42101e-14 8.3387e-15 0 0 -1.37062e-14 0 0 0 0)
(-5.42101e-14 2.17024e-14 0 -1.0842e-13 7.27511e-15 0 0 0 0)
(0 1.71836e-14 0 0 -9.08888e-15 0 0 0 0)
(5.42101e-14 -1.31453e-15 0 0 -1.59585e-14 0 0 0 0)
(0 -5.03235e-15 0 0 2.28772e-15 0 0 0 0)
(5.42101e-13 -6.93006e-12 0 -8.67362e-13 9.41092e-12 0 0 0 0)
(-3.79471e-13 8.41497e-12 0 2.1684e-13 -1.9565e-12 0 0 0 0)
(0 -1.81734e-12 0 0 4.48107e-13 0 0 0 0)
(-8.13152e-14 4.30235e-13 0 0 -9.4546e-14 0 0 0 0)
(0 -9.98752e-14 0 -8.13152e-14 2.51581e-14 0 0 0 0)
(-2.71051e-14 1.22352e-15 0 0 -3.45583e-15 0 0 0 0)
(0 -2.28695e-14 0 5.42101e-14 -1.9767e-16 0 0 0 0)
(0 2.36191e-15 0 -2.71051e-14 3.01539e-17 0 0 0 0)
(0 1.12534e-14 0 -5.42101e-14 3.47334e-15 0 0 0 0)
(2.71051e-14 5.87604e-15 0 0 -6.72463e-15 0 0 0 0)
(0 -4.40704e-16 0 5.42101e-14 -1.1214e-14 0 0 0 0)
(2.71051e-14 3.76718e-15 0 2.71051e-14 -1.19017e-14 0 0 0 0)
(0 7.10014e-15 0 -2.71051e-14 1.08934e-14 0 0 0 0)
(-2.71051e-14 -5.39413e-15 0 0 2.31258e-14 0 0 0 0)
(-5.42101e-14 -1.38451e-14 0 0 2.27855e-14 0 0 0 0)
(-2.71051e-14 -7.4521e-16 0 2.71051e-14 2.12559e-14 0 0 0 0)
(-5.42101e-14 2.05044e-15 0 0 2.00389e-14 0 0 0 0)
(5.42101e-14 -5.34537e-15 0 5.42101e-14 -3.35966e-15 0 0 0 0)
(2.71051e-14 7.91647e-15 0 0 -8.24413e-15 0 0 0 0)
(-2.71051e-14 9.16545e-15 0 0 -8.63032e-16 0 0 0 0)
(-8.40257e-13 8.43424e-12 0 7.31836e-13 3.0027e-12 0 0 0 0)
(7.86047e-13 -1.02142e-11 0 -4.06576e-13 -6.05283e-13 0 0 0 0)
(-1.6263e-13 2.18814e-12 0 -1.89735e-13 1.33589e-13 0 0 0 0)
(2.71051e-14 -4.93145e-13 0 -8.13152e-14 -4.5982e-14 0 0 0 0)
(5.42101e-14 1.1711e-13 0 -8.13152e-14 -2.10445e-14 0 0 0 0)
(5.42101e-14 -3.76893e-14 0 -8.13152e-14 -2.42498e-14 0 0 0 0)
(0 -1.69516e-14 0 0 -9.24868e-15 0 0 0 0)
(0 -6.32652e-15 0 -5.42101e-14 -4.05725e-17 0 0 0 0)
(0 6.39635e-15 0 0 -6.94837e-16 0 0 0 0)
(0 6.84287e-15 0 -8.13152e-14 -1.98737e-15 0 0 0 0)
(0 9.48756e-15 0 -8.13152e-14 -3.34854e-15 0 0 0 0)
(0 1.02353e-14 0 -1.0842e-13 1.71835e-15 0 0 0 0)
(0 4.45547e-15 0 -8.13152e-14 -8.4376e-15 0 0 0 0)
(2.71051e-14 -2.95988e-15 0 -1.0842e-13 -2.16206e-14 0 0 0 0)
(5.42101e-14 -2.48517e-15 0 -8.13152e-14 -2.66699e-14 0 0 0 0)
(2.71051e-14 5.59207e-15 0 -8.13152e-14 -1.3053e-14 0 0 0 0)
(0 -2.91317e-15 0 5.42101e-14 -3.81701e-15 0 0 0 0)
(0 -1.10994e-14 0 2.71051e-14 8.44433e-15 0 0 0 0)
(-2.71051e-14 1.1821e-15 0 2.71051e-14 1.54965e-14 0 0 0 0)
(0 4.07481e-15 0 -2.71051e-14 1.84286e-16 0 0 0 0)
(8.94467e-13 -4.53264e-12 0 -1.13841e-12 -1.37854e-11 0 0 0 0)
(-1.24683e-12 5.54586e-12 0 4.87891e-13 2.96059e-12 0 0 0 0)
(2.98156e-13 -1.25804e-12 0 1.0842e-13 -6.58234e-13 0 0 0 0)
(-2.71051e-14 2.75602e-13 0 1.35525e-13 1.39773e-13 0 0 0 0)
(0 -7.81431e-14 0 1.35525e-13 -6.56664e-14 0 0 0 0)
(2.71051e-14 1.30193e-14 0 8.13152e-14 -3.40475e-14 0 0 0 0)
(5.42101e-14 1.33978e-15 0 5.42101e-14 -1.74737e-14 0 0 0 0)
(-5.42101e-14 1.09157e-14 0 1.0842e-13 4.49106e-15 0 0 0 0)
(0 9.30657e-15 0 8.13152e-14 4.31789e-15 0 0 0 0)
(0 3.22234e-15 0 1.0842e-13 1.28641e-14 0 0 0 0)
(-2.71051e-14 3.26502e-15 0 1.35525e-13 1.60056e-14 0 0 0 0)
(0 -1.32188e-15 0 8.13152e-14 1.09037e-14 0 0 0 0)
(2.71051e-14 -1.62388e-14 0 5.42101e-14 4.17699e-15 0 0 0 0)
(-2.71051e-14 -2.36265e-14 0 2.71051e-14 1.82224e-15 0 0 0 0)
(0 -5.27752e-15 0 2.71051e-14 -1.71616e-14 0 0 0 0)
(2.71051e-14 2.21077e-14 0 0 -2.12784e-14 0 0 0 0)
(5.42101e-14 2.35478e-14 0 -5.42101e-14 -2.4024e-14 0 0 0 0)
(2.71051e-14 1.39681e-14 0 -2.71051e-14 -8.86802e-15 0 0 0 0)
(-2.71051e-14 -3.43571e-16 0 -2.71051e-14 1.07771e-15 0 0 0 0)
(0 -6.51534e-15 0 0 -2.57032e-15 0 0 0 0)
(-1.51788e-12 -2.39054e-12 0 -1.11131e-12 1.60344e-11 0 0 0 0)
(2.05998e-12 2.91295e-12 0 3.25261e-13 -3.52781e-12 0 0 0 0)
(-5.96311e-13 -6.32675e-13 0 8.13152e-14 8.34024e-13 0 0 0 0)
(1.0842e-13 9.94233e-14 0 5.42101e-14 -1.8139e-13 0 0 0 0)
(0 -5.67105e-14 0 2.71051e-14 4.74857e-14 0 0 0 0)
(2.71051e-14 1.05034e-14 0 2.71051e-14 1.18922e-15 0 0 0 0)
(-2.71051e-14 2.15869e-14 0 -5.42101e-14 1.23545e-14 0 0 0 0)
(0 1.54651e-14 0 -2.71051e-14 3.86637e-15 0 0 0 0)
(2.71051e-14 1.47694e-14 0 -2.71051e-14 -7.89891e-15 0 0 0 0)
(0 1.85306e-14 0 -2.71051e-14 -5.58975e-15 0 0 0 0)
(0 7.52715e-15 0 -2.71051e-14 -1.53262e-15 0 0 0 0)
(0 -1.59329e-15 0 2.71051e-14 -2.97173e-16 0 0 0 0)
(-2.71051e-14 -4.62602e-15 0 0 7.23838e-15 0 0 0 0)
(-2.71051e-14 -2.42985e-14 0 8.13152e-14 1.88829e-14 0 0 0 0)
(-2.71051e-14 -2.55858e-14 0 8.13152e-14 3.28293e-14 0 0 0 0)
(-5.42101e-14 -1.2703e-15 0 5.42101e-14 2.54032e-14 0 0 0 0)
(0 9.49716e-15 0 0 8.21817e-15 0 0 0 0)
(0 1.40023e-14 0 -5.42101e-14 -8.03844e-15 0 0 0 0)
(5.42101e-14 7.47979e-15 0 0 -1.97554e-14 0 0 0 0)
(0 5.56743e-15 0 0 -9.26981e-15 0 0 0 0)
(1.0842e-13 7.97395e-12 0 4.60786e-12 -7.47878e-13 0 0 0 0)
(-1.0842e-13 -9.65453e-12 0 -1.24683e-12 1.7895e-13 0 0 0 0)
(5.42101e-14 2.08838e-12 0 8.13152e-14 -6.06604e-14 0 0 0 0)
(-2.71051e-14 -5.10937e-13 0 -5.42101e-14 1.73363e-14 0 0 0 0)
(-2.71051e-14 1.04436e-13 0 -2.71051e-14 1.61373e-14 0 0 0 0)
(-5.42101e-14 -2.21118e-14 0 -2.71051e-14 2.68416e-14 0 0 0 0)
(0 4.01693e-15 0 0 9.13503e-15 0 0 0 0)
(0 -9.3377e-15 0 -2.71051e-14 6.09302e-15 0 0 0 0)
(-2.71051e-14 -1.4954e-16 0 -5.42101e-14 3.92996e-15 0 0 0 0)
(0 9.58863e-15 0 -5.42101e-14 -3.65081e-15 0 0 0 0)
(0 8.55759e-15 0 -8.13152e-14 -1.85644e-14 0 0 0 0)
(0 7.44912e-15 0 -8.13152e-14 -2.3383e-14 0 0 0 0)
(2.71051e-14 2.94127e-15 0 -5.42101e-14 -2.08585e-14 0 0 0 0)
(8.13152e-14 1.9645e-15 0 -2.71051e-14 -1.4897e-14 0 0 0 0)
(-2.71051e-14 1.24277e-15 0 0 1.1712e-14 0 0 0 0)
(0 -2.50346e-15 0 -8.13152e-14 1.73819e-14 0 0 0 0)
(0 -9.89385e-15 0 5.42101e-14 1.12754e-14 0 0 0 0)
(0 -1.40055e-14 0 5.42101e-14 2.90506e-15 0 0 0 0)
(2.71051e-14 -1.57494e-15 0 0 -9.03421e-15 0 0 0 0)
(-2.71051e-14 2.25099e-14 0 2.71051e-14 -2.31801e-15 0 0 0 0)
(1.81604e-12 -2.95947e-12 0 -1.46367e-12 -1.8528e-11 0 0 0 0)
(-2.43945e-12 3.60016e-12 0 4.87891e-13 4.00514e-12 0 0 0 0)
(6.77626e-13 -7.94289e-13 0 2.71051e-14 -9.58525e-13 0 0 0 0)
(-5.42101e-14 1.76221e-13 0 5.42101e-14 2.01055e-13 0 0 0 0)
(2.71051e-14 -4.72053e-14 0 8.13152e-14 -5.27751e-14 0 0 0 0)
(0 3.50112e-15 0 5.42101e-14 2.50184e-15 0 0 0 0)
(2.71051e-14 8.38343e-16 0 5.42101e-14 -9.96683e-15 0 0 0 0)
(0 1.026e-14 0 5.42101e-14 5.36028e-15 0 0 0 0)
(-2.71051e-14 5.02561e-15 0 1.0842e-13 1.66613e-14 0 0 0 0)
(0 -3.96375e-15 0 1.0842e-13 1.72701e-14 0 0 0 0)
(-2.71051e-14 -1.2205e-14 0 1.0842e-13 1.39904e-14 0 0 0 0)
(0 -3.88747e-15 0 1.0842e-13 5.77315e-15 0 0 0 0)
(0 3.86e-15 0 8.13152e-14 9.18589e-16 0 0 0 0)
(-5.42101e-14 8.27204e-15 0 2.71051e-14 1.52958e-15 0 0 0 0)
(0 6.69309e-15 0 0 -8.96107e-15 0 0 0 0)
(0 -1.70685e-15 0 2.71051e-14 -9.65349e-15 0 0 0 0)
(5.42101e-14 -4.97965e-15 0 2.71051e-14 -1.14367e-14 0 0 0 0)
(0 -6.30734e-15 0 0 -4.47571e-17 0 0 0 0)
(2.71051e-14 2.25671e-15 0 0 6.86834e-15 0 0 0 0)
(-2.71051e-14 1.69197e-14 0 -2.71051e-14 8.94603e-15 0 0 0 0)
(-8.40257e-13 -6.54889e-12 0 -1.19262e-12 1.21406e-11 0 0 0 0)
(1.35525e-12 7.91493e-12 0 2.1684e-13 -2.63221e-12 0 0 0 0)
(-3.79471e-13 -1.71571e-12 0 -1.0842e-13 6.25468e-13 0 0 0 0)
(2.71051e-14 3.94813e-13 0 -5.42101e-14 -1.22212e-13 0 0 0 0)
(-2.71051e-14 -9.4117e-14 0 -8.13152e-14 5.44339e-14 0 0 0 0)
(-2.71051e-14 2.06965e-14 0 -5.42101e-14 1.91098e-14 0 0 0 0)
(-2.71051e-14 6.87538e-15 0 -5.42101e-14 3.02363e-14 0 0 0 0)
(0 1.72905e-14 0 -5.42101e-14 1.13961e-14 0 0 0 0)
(-2.71051e-14 1.17602e-14 0 -5.42101e-14 2.68582e-15 0 0 0 0)
(0 6.91773e-15 0 -5.42101e-14 -5.38974e-15 0 0 0 0)
(2.71051e-14 -2.93931e-15 0 -5.42101e-14 -2.68154e-16 0 0 0 0)
(-2.71051e-14 -5.62273e-15 0 -5.42101e-14 9.75461e-15 0 0 0 0)
(0 -1.3023e-15 0 -2.71051e-14 9.24204e-15 0 0 0 0)
(0 -7.91516e-15 0 -2.71051e-14 7.19691e-15 0 0 0 0)
(0 -9.9403e-15 0 -2.71051e-14 8.88516e-15 0 0 0 0)
(-2.71051e-14 -4.97908e-15 0 5.42101e-14 1.04441e-14 0 0 0 0)
(-2.71051e-14 -2.85113e-16 0 -2.71051e-14 1.55711e-14 0 0 0 0)
(0 4.29958e-15 0 0 1.57089e-14 0 0 0 0)
(0 7.41584e-15 0 0 1.75788e-14 0 0 0 0)
(0 6.69552e-15 0 0 6.03633e-15 0 0 0 0)
)
;

boundaryField
{
    movingWall
    {
        type            extrapolatedCalculated;
        value           nonuniform List<tensor> 
20
(
(-8.40257e-13 -6.54889e-12 0 5.24025e-12 3.33864e-11 0 0 0 0)
(1.35525e-12 7.91493e-12 0 -1.82077e-12 -7.19085e-12 0 0 0 0)
(-3.79471e-13 -1.71571e-12 0 -2.22045e-13 1.72668e-12 0 0 0 0)
(2.71051e-14 3.94813e-13 0 -3.55271e-13 -3.28029e-13 0 0 0 0)
(-2.71051e-14 -9.4117e-14 0 -3.10862e-13 1.4743e-13 0 0 0 0)
(-2.71051e-14 2.06965e-14 0 -2.22045e-13 4.8439e-14 0 0 0 0)
(-2.71051e-14 6.87538e-15 0 -1.77636e-13 6.4644e-14 0 0 0 0)
(0 1.72905e-14 0 -1.33227e-13 2.09375e-14 0 0 0 0)
(-2.71051e-14 1.17602e-14 0 -1.77636e-13 -4.5178e-15 0 0 0 0)
(0 6.91773e-15 0 -8.88178e-14 -2.61035e-14 0 0 0 0)
(2.71051e-14 -2.93931e-15 0 -2.22045e-13 -3.21887e-14 0 0 0 0)
(-2.71051e-14 -5.62273e-15 0 -1.33227e-13 -1.43462e-14 0 0 0 0)
(0 -1.3023e-15 0 -4.44089e-14 -9.69782e-15 0 0 0 0)
(0 -7.91516e-15 0 -1.33227e-13 -9.13702e-15 0 0 0 0)
(0 -9.9403e-15 0 -8.88178e-14 2.19628e-14 0 0 0 0)
(-2.71051e-14 -4.97908e-15 0 -4.44089e-14 3.06242e-14 0 0 0 0)
(-2.71051e-14 -2.85113e-16 0 -4.44089e-14 4.18791e-14 0 0 0 0)
(0 4.29958e-15 0 0 3.17646e-14 0 0 0 0)
(0 7.41584e-15 0 0 2.46808e-14 0 0 0 0)
(0 6.69552e-15 0 0 2.10125e-15 0 0 0 0)
)
;
    }
    fixedWalls
    {
        type            extrapolatedCalculated;
        value           nonuniform List<tensor> 
60
(
(-6.75016e-12 5.08032e-11 0 7.58942e-13 1.51419e-11 0 0 0 0)
(9.76996e-12 9.76435e-12 0 6.77626e-13 -2.54864e-11 0 0 0 0)
(-3.9968e-12 -5.11423e-11 0 -3.87602e-12 5.98807e-12 0 0 0 0)
(-5.68434e-12 3.37166e-11 0 3.49655e-12 1.33348e-11 0 0 0 0)
(9.9476e-12 2.19687e-12 0 4.06576e-13 -1.76577e-11 0 0 0 0)
(-4.08562e-12 -3.69142e-11 0 -2.35814e-12 1.09419e-11 0 0 0 0)
(5.32907e-13 4.59645e-11 0 1.57209e-12 5.14984e-12 0 0 0 0)
(2.13163e-12 -1.63148e-11 0 -7.58942e-13 -1.7013e-11 0 0 0 0)
(-2.4869e-12 -2.20873e-11 0 -4.06576e-13 1.38221e-11 0 0 0 0)
(5.77316e-13 3.89736e-11 0 9.21572e-13 -4.84008e-12 0 0 0 0)
(1.24345e-12 -4.14476e-11 0 -7.31836e-13 -3.06148e-12 0 0 0 0)
(-2.57572e-12 2.67277e-11 0 -4.06576e-13 1.16903e-11 0 0 0 0)
(-3.55271e-13 5.31346e-12 0 1.13841e-12 -1.55376e-11 0 0 0 0)
(1.9984e-12 -3.54229e-11 0 -8.67362e-13 9.41092e-12 0 0 0 0)
(-3.73035e-12 4.29571e-11 0 7.31836e-13 3.0027e-12 0 0 0 0)
(4.9738e-12 -2.34121e-11 0 -1.13841e-12 -1.37854e-11 0 0 0 0)
(-8.43769e-12 -1.21843e-11 0 -1.11131e-12 1.60344e-11 0 0 0 0)
(5.77316e-13 4.07255e-11 0 4.60786e-12 -7.47878e-13 0 0 0 0)
(1.00808e-11 -1.51758e-11 0 -1.46367e-12 -1.8528e-11 0 0 0 0)
(-5.24025e-12 -3.33864e-11 0 -1.19262e-12 1.21406e-11 0 0 0 0)
(0 4.98643e-15 0 0 -8.24942e-15 0 0 0 0)
(8.88178e-14 2.80113e-14 0 0 -8.35867e-15 0 0 0 0)
(0 3.84211e-14 0 0 -3.38386e-16 0 0 0 0)
(0 2.93648e-14 0 0 2.38595e-15 0 0 0 0)
(-4.44089e-14 2.88773e-14 0 0 3.46905e-15 0 0 0 0)
(0 1.54886e-14 0 0 1.26988e-14 0 0 0 0)
(-4.44089e-14 -2.1918e-14 0 2.71051e-14 1.03925e-14 0 0 0 0)
(0 -2.60814e-14 0 -2.71051e-14 -6.15932e-15 0 0 0 0)
(-4.44089e-14 2.71927e-15 0 2.71051e-14 -1.04136e-14 0 0 0 0)
(0 1.55731e-14 0 -2.71051e-14 -5.84365e-15 0 0 0 0)
(-4.44089e-14 2.60938e-14 0 2.71051e-14 1.21974e-15 0 0 0 0)
(-4.44089e-14 1.06941e-14 0 0 6.76382e-15 0 0 0 0)
(0 -9.61423e-16 0 0 2.28772e-15 0 0 0 0)
(-4.44089e-14 1.54325e-15 0 0 -8.63032e-16 0 0 0 0)
(0 2.4907e-15 0 -2.71051e-14 1.84286e-16 0 0 0 0)
(0 8.06109e-16 0 0 -2.57032e-15 0 0 0 0)
(0 1.2772e-14 0 0 -9.26981e-15 0 0 0 0)
(-4.44089e-14 3.78854e-14 0 2.71051e-14 -2.31801e-15 0 0 0 0)
(-4.44089e-14 2.2044e-14 0 -2.71051e-14 8.94603e-15 0 0 0 0)
(0 2.10125e-15 0 0 6.03633e-15 0 0 0 0)
(-1.32815e-12 9.97259e-12 0 -6.75016e-12 5.08032e-11 0 0 0 0)
(1.5992e-12 -1.20748e-11 0 1.46549e-12 -1.09129e-11 0 0 0 0)
(-4.06576e-13 2.58393e-12 0 -4.44089e-13 2.50413e-12 0 0 0 0)
(5.42101e-14 -6.04402e-13 0 -1.77636e-13 -5.77122e-13 0 0 0 0)
(0 1.3151e-13 0 -8.88178e-14 8.65193e-14 0 0 0 0)
(0 -2.77096e-14 0 -1.77636e-13 -5.10816e-14 0 0 0 0)
(2.71051e-14 4.18451e-15 0 -8.88178e-14 -2.43189e-14 0 0 0 0)
(0 1.01465e-14 0 -8.88178e-14 -3.43435e-14 0 0 0 0)
(5.42101e-14 1.45882e-14 0 0 1.6267e-14 0 0 0 0)
(-5.42101e-14 -1.12079e-15 0 -8.88178e-14 2.40092e-14 0 0 0 0)
(5.42101e-14 -1.36878e-14 0 0 1.17838e-14 0 0 0 0)
(0 -7.99166e-15 0 0 -3.07421e-14 0 0 0 0)
(2.71051e-14 1.27832e-14 0 0 -2.01828e-14 0 0 0 0)
(0 1.03532e-14 0 8.88178e-14 2.03905e-14 0 0 0 0)
(-2.71051e-14 1.01265e-15 0 0 2.123e-14 0 0 0 0)
(0 -2.02151e-15 0 0 2.44411e-14 0 0 0 0)
(2.71051e-14 -3.6217e-15 0 4.44089e-14 1.31439e-14 0 0 0 0)
(-2.71051e-14 1.42674e-15 0 0 9.95432e-15 0 0 0 0)
(0 -3.73519e-15 0 4.44089e-14 1.88509e-14 0 0 0 0)
(0 -3.46611e-15 0 0 -4.98643e-15 0 0 0 0)
)
;
    }
    frontAndBack
    {
        type            empty;
    }
}


// ************************************************************************* //
