/*--------------------------------*- C++ -*----------------------------------*\
| =========                 |                                                 |
| \\      /  F ield         | OpenFOAM: The Open Source CFD Toolbox           |
|  \\    /   O peration     | Version:  2506                                  |
|   \\  /    A nd           | Website:  www.openfoam.com                      |
|    \\/     M anipulation  |                                                 |
\*---------------------------------------------------------------------------*/
FoamFile
{
    version     2.0;
    format      ascii;
    arch        "LSB;label=32;scalar=64";
    class       volVectorField;
    location    "6.375";
    object      LambVectorField;
}
// * * * * * * * * * * * * * * * * * * * * * * * * * * * * * * * * * * * * * //

dimensions      [0 1 -2 0 0 0 0];

internalField   nonuniform List<vector> 
400
(
(-1.17021e-24 -9.21365e-12 0)
(-3.20552e-25 1.17495e-11 -0)
(-1.73641e-26 -2.77367e-12 0)
(-7.15606e-28 4.95982e-13 -0)
(-4.0171e-29 -1.8572e-13 0)
(6.84564e-30 -5.36056e-14 -0)
(3.55023e-30 -5.83946e-14 -0)
(7.85278e-30 -9.14616e-14 -0)
(-2.79785e-30 -6.87983e-14 0)
(-4.8135e-30 -8.01944e-14 0)
(-1.99227e-30 -6.76273e-14 0)
(3.55213e-30 -4.62184e-14 -0)
(4.74793e-30 -9.40983e-14 -0)
(-5.27768e-31 -1.03532e-14 0)
(-2.93095e-30 -5.52228e-14 0)
(-3.18887e-30 -5.21886e-14 0)
(1.19008e-31 3.6217e-15 0)
(-1.38457e-30 -5.56368e-14 0)
(-2.37874e-30 -5.04749e-14 0)
(-4.32089e-32 3.46611e-15 -0)
(-3.0843e-26 -1.26349e-12 0)
(-1.11089e-26 2.22194e-12 -0)
(-3.96746e-28 -3.58302e-13 0)
(-6.36601e-29 1.91494e-13 -0)
(-2.21257e-33 -4.01548e-16 0)
(-2.11054e-30 3.67859e-14 -0)
(-7.06435e-31 7.73765e-15 -0)
(-2.98554e-30 2.21561e-14 -0)
(-1.8244e-30 4.36365e-14 -0)
(-8.76355e-31 3.02049e-14 -0)
(-7.48401e-31 1.02792e-14 -0)
(-1.41863e-31 1.0763e-15 -0)
(-1.52438e-30 1.82408e-14 -0)
(2.57899e-30 -5.97498e-14 -0)
(9.4201e-32 -3.34363e-15 -0)
(-1.84494e-32 1.89675e-15 -0)
(-1.74951e-31 3.71125e-15 -0)
(8.71104e-32 -1.85977e-15 -0)
(-6.6188e-32 2.31888e-15 -0)
(6.90276e-31 -9.85712e-15 -0)
(-7.92327e-25 6.19704e-12 -0)
(-2.99419e-25 -1.10385e-11 0)
(-1.7175e-26 2.59099e-12 -0)
(-6.60656e-28 -5.43722e-13 0)
(-4.75017e-29 1.25547e-13 -0)
(9.33764e-31 -2.31062e-14 -0)
(4.34648e-30 -2.95088e-14 -0)
(2.62315e-31 -1.60198e-14 -0)
(-8.165e-31 -6.32753e-14 0)
(3.91246e-30 5.26735e-14 0)
(8.08139e-32 2.85866e-15 0)
(2.03015e-31 4.44322e-15 0)
(-1.97694e-31 1.22318e-14 -0)
(7.13482e-32 -9.3111e-16 -0)
(-5.28747e-31 7.71757e-14 -0)
(-2.13339e-30 6.05523e-14 -0)
(-2.44056e-30 3.47294e-14 -0)
(-1.00896e-29 9.05092e-14 -0)
(-1.29402e-29 7.97729e-14 -0)
(2.48072e-30 -2.58266e-14 -0)
(-2.54284e-25 -3.01671e-12 0)
(-1.35211e-25 7.05735e-12 -0)
(-6.98229e-27 -1.65016e-12 0)
(-3.86698e-28 3.75068e-13 -0)
(-8.82905e-30 -4.21345e-14 0)
(-1.66354e-30 2.46228e-14 -0)
(-9.21142e-31 2.51107e-14 -0)
(-1.59303e-32 3.34552e-16 -0)
(1.3309e-30 -3.32486e-14 -0)
(-8.25224e-31 -5.97167e-14 0)
(4.37627e-31 2.91033e-14 0)
(-3.9915e-31 6.47634e-14 -0)
(-1.17193e-30 1.29501e-14 -0)
(-8.8723e-31 6.53991e-15 -0)
(-3.65936e-30 2.34732e-14 -0)
(-1.30184e-30 1.31041e-14 -0)
(1.46474e-30 -9.22081e-14 -0)
(-2.14293e-31 -2.23605e-14 0)
(1.19096e-30 -1.88055e-14 -0)
(1.00385e-30 -1.36742e-14 -0)
(-4.91123e-29 -8.94223e-15 0)
(-7.77619e-28 5.81616e-13 -0)
(-1.83375e-29 -8.40715e-14 0)
(2.75407e-30 6.01079e-14 0)
(6.64034e-30 4.17263e-14 0)
(1.93562e-29 1.13422e-13 0)
(2.08104e-29 1.90707e-13 0)
(-1.79544e-29 1.63064e-13 -0)
(-2.8254e-29 1.6993e-13 -0)
(-1.99079e-29 1.08727e-13 -0)
(-1.84275e-29 1.08824e-13 -0)
(-1.04755e-29 5.59782e-14 -0)
(-1.46046e-29 7.80937e-14 -0)
(-1.66812e-29 1.07676e-13 -0)
(7.15017e-30 -3.98177e-14 -0)
(1.22598e-30 -4.41112e-14 -0)
(-5.22812e-31 5.49682e-14 -0)
(-1.16147e-31 3.28338e-15 -0)
(-1.30367e-30 3.0787e-14 -0)
(8.2689e-31 -1.14538e-14 -0)
(-4.46593e-25 4.83926e-12 -0)
(-1.66125e-25 -8.17884e-12 0)
(-8.30448e-27 1.83158e-12 -0)
(-5.16659e-28 -4.36881e-13 0)
(-1.76676e-29 1.06919e-13 -0)
(-2.5103e-30 -2.21323e-14 0)
(-1.09943e-30 -1.96047e-14 0)
(2.45359e-31 6.38641e-15 0)
(9.4864e-32 -1.21864e-14 -0)
(-1.51764e-30 1.37011e-14 -0)
(-1.07934e-31 7.45423e-16 -0)
(6.0614e-31 -5.12714e-15 -0)
(3.44846e-32 -3.68726e-16 -0)
(2.41015e-31 -2.1043e-15 -0)
(2.92122e-30 -4.03034e-14 -0)
(-1.12154e-30 -6.42751e-14 0)
(1.07408e-30 3.81292e-14 0)
(-3.37443e-30 3.63652e-14 -0)
(3.48392e-31 -5.40715e-15 -0)
(3.99424e-31 -1.03153e-14 -0)
(-8.59424e-25 -7.47902e-12 0)
(-2.49841e-25 1.02393e-11 -0)
(-1.46744e-26 -2.4405e-12 0)
(-4.97005e-28 4.60463e-13 -0)
(-6.90708e-29 -2.13145e-13 0)
(2.68458e-30 -8.36126e-14 -0)
(-1.13585e-29 -1.49497e-13 0)
(-1.45121e-29 -1.34859e-13 0)
(-6.19069e-30 -8.93152e-14 0)
(8.01358e-30 -9.60387e-14 -0)
(8.11803e-30 -1.48948e-13 -0)
(-6.07868e-30 -1.19702e-13 0)
(-4.64525e-30 -7.96566e-14 0)
(-3.57018e-30 -1.04404e-13 0)
(2.38721e-31 1.31488e-14 0)
(-1.32363e-30 1.36046e-14 -0)
(2.92602e-30 -2.48197e-14 -0)
(4.63849e-30 -3.86072e-14 -0)
(2.83554e-31 -9.88093e-14 -0)
(1.76975e-30 3.22976e-14 0)
(-9.84365e-26 2.41342e-12 -0)
(-3.23852e-26 -3.57317e-12 0)
(-1.88224e-27 9.07611e-13 -0)
(-8.01158e-29 -1.51323e-13 0)
(-7.06138e-31 3.81657e-14 -0)
(6.84704e-30 4.63335e-14 0)
(4.06809e-30 6.75042e-14 0)
(1.80277e-31 1.21512e-14 0)
(-5.91193e-31 9.65244e-15 -0)
(-4.49872e-30 5.50718e-14 -0)
(-1.52951e-30 2.18924e-14 -0)
(-1.53833e-30 5.20387e-14 -0)
(-2.73999e-30 5.69037e-14 -0)
(-2.82761e-30 5.00489e-14 -0)
(-1.37337e-32 2.10035e-15 -0)
(-7.62468e-30 9.83824e-14 -0)
(8.87446e-30 -5.00785e-14 -0)
(1.46999e-30 -1.23719e-14 -0)
(-1.91545e-30 3.58081e-14 -0)
(-1.69098e-30 -2.59339e-14 0)
(-2.17197e-25 3.93342e-12 -0)
(-5.94422e-26 -5.02969e-12 0)
(-3.29802e-27 1.19797e-12 -0)
(-1.40781e-28 -2.16026e-13 0)
(-7.92839e-30 1.56573e-13 -0)
(6.13877e-30 3.60772e-14 0)
(7.42335e-30 5.68003e-14 0)
(1.72498e-29 1.19579e-13 0)
(1.75781e-30 9.19952e-14 0)
(1.21739e-30 3.2503e-14 0)
(-4.24214e-30 1.21649e-13 -0)
(-6.1186e-30 6.45173e-14 -0)
(-9.69293e-30 7.02673e-14 -0)
(-2.04875e-29 8.02146e-14 -0)
(3.4482e-30 -2.71645e-14 -0)
(-1.59073e-30 -9.79745e-14 0)
(2.34446e-30 5.912e-14 0)
(-4.78213e-31 1.45516e-14 -0)
(2.75925e-31 -2.6065e-15 -0)
(-1.07678e-31 1.58392e-14 -0)
(-6.49665e-25 -6.66775e-12 0)
(-1.89362e-25 8.79086e-12 -0)
(-1.11187e-26 -2.14293e-12 0)
(-3.89821e-28 4.21632e-13 -0)
(-6.44382e-29 -1.49808e-13 0)
(-9.62394e-31 -3.06202e-14 0)
(-1.3186e-29 -6.78856e-14 0)
(2.22914e-30 1.32541e-14 0)
(2.79957e-30 4.53755e-14 0)
(-6.037e-31 4.15797e-14 -0)
(-1.42931e-30 1.72106e-14 -0)
(-1.19428e-30 6.39938e-15 -0)
(2.17915e-30 -1.48199e-14 -0)
(2.84017e-30 -7.39133e-14 -0)
(-4.77416e-31 -9.55032e-15 0)
(1.23113e-31 2.15694e-15 0)
(1.08849e-30 3.83001e-14 0)
(-6.63209e-31 1.20864e-14 -0)
(1.47353e-31 -1.59398e-15 -0)
(1.56676e-30 -4.02427e-14 -0)
(-7.58933e-25 7.32426e-12 -0)
(-2.22649e-25 -9.65603e-12 0)
(-1.09253e-26 2.11672e-12 -0)
(-7.91954e-28 -5.87185e-13 0)
(-1.20548e-29 1.1737e-13 -0)
(-1.32666e-29 -7.57979e-14 0)
(-4.3695e-30 -3.86099e-14 0)
(-7.26965e-31 -3.82129e-14 0)
(6.82261e-31 -1.45778e-14 -0)
(1.5724e-30 -1.47992e-14 -0)
(-1.89902e-30 1.118e-14 -0)
(9.60281e-30 -4.40399e-14 -0)
(7.72163e-32 -1.51089e-13 -0)
(-1.95877e-29 -9.38821e-14 0)
(2.23268e-30 1.78389e-14 0)
(3.1582e-30 1.04393e-13 0)
(-3.95814e-30 3.74753e-14 -0)
(3.90529e-31 -5.31698e-15 -0)
(-1.37858e-30 2.62836e-14 -0)
(-1.00048e-30 1.53366e-14 -0)
(-3.78191e-25 -5.65992e-12 0)
(-9.16282e-26 6.41398e-12 -0)
(-4.6177e-27 -1.43342e-12 0)
(-1.89091e-28 2.47282e-13 -0)
(-2.94775e-29 -1.42719e-13 0)
(-1.44426e-30 -1.19946e-14 0)
(-5.44317e-31 -9.81865e-15 0)
(3.54722e-30 -6.76245e-14 -0)
(7.24304e-30 -8.89048e-14 -0)
(-2.22861e-30 -9.5069e-14 0)
(-8.03818e-30 -1.43364e-13 0)
(-1.13594e-29 -1.11558e-13 0)
(-2.45461e-30 -2.80684e-14 0)
(-2.77498e-30 -2.4897e-14 0)
(-4.80623e-30 -7.35228e-14 0)
(-3.30609e-31 -9.85863e-15 0)
(-2.74899e-31 2.5669e-15 -0)
(-5.6712e-31 -7.20984e-14 0)
(-1.69744e-30 -2.36449e-14 0)
(-1.20452e-31 4.50535e-15 -0)
(2.10661e-27 1.58587e-13 0)
(-3.88918e-27 1.11585e-12 -0)
(-1.46787e-28 -1.90657e-13 0)
(-3.38746e-29 1.51511e-13 -0)
(3.75709e-30 5.52957e-14 0)
(3.42903e-30 9.36486e-14 0)
(-2.63335e-30 4.75426e-14 -0)
(-1.98657e-29 1.18418e-13 -0)
(-6.37911e-30 4.1059e-14 -0)
(-1.18459e-30 3.26799e-14 -0)
(7.45654e-31 1.24404e-14 0)
(1.02877e-29 9.31873e-14 0)
(-9.76381e-30 1.66097e-13 -0)
(-2.40778e-29 1.23272e-13 -0)
(-1.69845e-29 8.19304e-14 -0)
(1.68004e-30 -8.3387e-15 -0)
(1.61243e-29 -1.30123e-13 -0)
(-2.67186e-31 -1.71836e-14 0)
(6.29922e-32 1.31453e-15 0)
(1.20955e-32 5.03235e-15 0)
(-5.36896e-25 6.0627e-12 -0)
(-1.57869e-25 -8.19813e-12 0)
(-8.0101e-27 1.81734e-12 -0)
(-4.66049e-28 -4.30235e-13 0)
(-1.95318e-30 1.85601e-14 -0)
(-1.03375e-31 -1.22352e-15 0)
(-7.16844e-30 7.70796e-14 -0)
(4.24927e-30 -2.9467e-14 -0)
(4.54195e-30 -6.54635e-14 -0)
(1.86098e-31 -5.87604e-15 -0)
(-5.80446e-31 5.46508e-14 -0)
(-8.41977e-31 2.33379e-14 -0)
(-9.25279e-31 -3.42052e-14 0)
(1.88383e-31 5.39413e-15 0)
(-3.72301e-31 1.38451e-14 -0)
(-2.88326e-30 2.78503e-14 -0)
(7.04174e-32 -2.05044e-15 -0)
(-4.94447e-30 5.95555e-14 -0)
(6.95037e-31 -7.91647e-15 -0)
(3.53615e-32 -9.16545e-15 -0)
(-8.27184e-25 -7.70241e-12 0)
(-2.2607e-25 9.80761e-12 -0)
(-1.24862e-26 -2.37787e-12 0)
(-4.81445e-28 4.1183e-13 -0)
(-6.34021e-29 -1.98425e-13 0)
(-8.97677e-32 -4.36259e-14 0)
(-9.72445e-31 1.69516e-14 -0)
(8.0185e-30 -4.78836e-14 -0)
(7.716e-31 -6.39635e-15 -0)
(9.12388e-30 -8.8158e-14 -0)
(4.74013e-30 -9.08027e-14 -0)
(1.0227e-30 -1.18656e-13 -0)
(-4.30143e-30 -8.57706e-14 0)
(-3.78979e-30 -1.0546e-13 0)
(-1.62008e-30 -7.883e-14 0)
(-9.63278e-31 -8.69072e-14 0)
(4.36834e-30 5.71233e-14 0)
(-6.89503e-31 3.82044e-14 -0)
(-8.94896e-31 2.5923e-14 -0)
(1.9415e-31 -3.11799e-14 -0)
(-1.98665e-25 3.39423e-12 -0)
(-6.67846e-26 -5.05796e-12 0)
(-4.19736e-27 1.36646e-12 -0)
(-8.73269e-29 -1.40077e-13 0)
(-6.74509e-29 2.13668e-13 -0)
(-1.07913e-29 6.82958e-14 -0)
(-9.80677e-30 5.28703e-14 -0)
(-1.41001e-29 9.75045e-14 -0)
(-5.4964e-30 7.20086e-14 -0)
(-5.42236e-30 1.05198e-13 -0)
(-5.83352e-30 1.3226e-13 -0)
(-1.56136e-30 8.2637e-14 -0)
(-4.03849e-30 7.04489e-14 -0)
(-9.19671e-30 5.07315e-14 -0)
(-9.50719e-30 3.23826e-14 -0)
(5.17447e-30 -2.21077e-14 -0)
(5.63843e-30 -7.77579e-14 -0)
(-5.83418e-32 -4.10732e-14 0)
(-1.79753e-30 -2.67615e-14 0)
(-1.31302e-32 6.51534e-15 -0)
(-3.89665e-26 1.27923e-12 -0)
(-1.69634e-26 -2.58769e-12 0)
(-9.50585e-28 7.1399e-13 -0)
(-1.03397e-29 -4.52132e-14 0)
(-2.82573e-29 8.38156e-14 -0)
(-5.61829e-30 1.66017e-14 -0)
(1.75927e-29 -7.57971e-14 -0)
(5.21686e-30 -4.25701e-14 -0)
(3.24328e-30 -4.18745e-14 -0)
(-1.14759e-30 -4.56356e-14 0)
(-3.7352e-30 -3.46322e-14 0)
(2.88184e-30 2.86983e-14 0)
(4.25226e-31 4.62602e-15 0)
(5.71983e-30 1.05614e-13 0)
(-1.61489e-29 1.06901e-13 -0)
(-1.11904e-29 5.54804e-14 -0)
(1.55533e-30 -9.49716e-15 -0)
(7.28017e-30 -6.82124e-14 -0)
(1.77602e-31 -7.47979e-15 -0)
(1.77768e-31 -5.56743e-15 -0)
(-3.42715e-25 -3.3661e-12 0)
(-1.85594e-25 8.4077e-12 -0)
(-1.05743e-26 -2.00707e-12 0)
(-5.43723e-28 4.56727e-13 -0)
(-2.09383e-29 -1.31541e-13 0)
(7.29586e-31 -4.99321e-15 -0)
(2.48816e-31 -4.01693e-15 -0)
(1.88239e-30 -1.77674e-14 -0)
(8.39663e-30 -5.40606e-14 -0)
(6.85465e-30 -6.37987e-14 -0)
(5.34137e-30 -8.98728e-14 -0)
(1.94091e-30 -8.87643e-14 -0)
(-8.60623e-31 -5.71514e-14 0)
(-2.19381e-31 -2.90696e-14 0)
(-4.31288e-32 -1.24277e-15 0)
(-1.57422e-30 -7.88117e-14 0)
(6.19827e-31 6.4104e-14 0)
(-5.38657e-30 6.82156e-14 -0)
(-2.0535e-31 1.57494e-15 -0)
(-4.35224e-31 4.59517e-15 -0)
(-5.67498e-26 1.49579e-12 -0)
(-2.59717e-26 -3.11227e-12 0)
(-1.59184e-27 8.21394e-13 -0)
(-4.90547e-29 -1.22011e-13 0)
(-2.25892e-29 1.2852e-13 -0)
(-3.54967e-30 5.0709e-14 -0)
(-7.51221e-30 5.33718e-14 -0)
(-2.70809e-30 4.39501e-14 -0)
(-3.94479e-30 1.03395e-13 -0)
(-1.27682e-30 1.12384e-13 -0)
(-9.38347e-30 1.20625e-13 -0)
(-1.49832e-29 1.12308e-13 -0)
(-9.0363e-30 7.74552e-14 -0)
(-1.78559e-30 1.8833e-14 -0)
(2.27194e-31 -6.69309e-15 -0)
(-8.03296e-31 2.88119e-14 -0)
(-1.63674e-30 3.20847e-14 -0)
(-4.89937e-31 6.30734e-15 -0)
(2.5746e-31 -2.25671e-15 -0)
(2.42621e-30 -4.40247e-14 -0)
(-4.47066e-25 5.35627e-12 -0)
(-1.3839e-25 -7.69809e-12 0)
(-6.93817e-27 1.60729e-12 -0)
(-3.68231e-28 -4.49023e-13 0)
(-4.71844e-30 1.28018e-14 -0)
(9.07099e-30 -7.49066e-14 -0)
(9.87203e-30 -6.10855e-14 -0)
(3.7426e-30 -7.15006e-14 -0)
(-7.45102e-31 -6.59703e-14 0)
(-3.98912e-30 -6.11278e-14 0)
(-4.12585e-30 -5.12708e-14 0)
(-1.74262e-30 -4.85874e-14 0)
(-6.25576e-31 -2.58027e-14 0)
(-4.38346e-31 -1.91899e-14 0)
(9.42465e-31 -1.71648e-14 -0)
(-4.53155e-30 5.91892e-14 -0)
(2.80799e-30 -2.68199e-14 -0)
(3.41436e-31 -4.29958e-15 -0)
(4.57572e-31 -7.41584e-15 -0)
(3.51725e-32 -6.69552e-15 -0)
)
;

boundaryField
{
    movingWall
    {
        type            calculated;
        value           nonuniform List<vector> 
20
(
(0 1.17891e-11 -0)
(0 -9.7357e-12 -0)
(0 1.49366e-12 -0)
(0 -7.50084e-13 -0)
(0 -2.16745e-13 -0)
(0 -2.42741e-13 -0)
(0 -1.84511e-13 -0)
(0 -1.50517e-13 -0)
(0 -1.89396e-13 -0)
(0 -9.57356e-14 -0)
(0 -2.19105e-13 -0)
(0 -1.27604e-13 -0)
(0 -4.31066e-14 -0)
(0 -1.25312e-13 -0)
(0 -7.88775e-14 -0)
(0 -3.94298e-14 -0)
(0 -4.41238e-14 -0)
(0 -4.29958e-15 -0)
(0 -7.41584e-15 -0)
(0 -6.69552e-15 -0)
)
;
    }
    fixedWalls
    {
        type            calculated;
        value           nonuniform List<vector> 
60
(
(0 -5.00443e-11 -0)
(0 -9.08672e-12 -0)
(0 4.72662e-11 -0)
(0 -3.02201e-11 -0)
(0 -1.7903e-12 -0)
(0 3.45561e-11 -0)
(0 -4.43924e-11 -0)
(0 1.55559e-11 -0)
(0 2.16807e-11 -0)
(0 -3.8052e-11 -0)
(0 4.07158e-11 -0)
(0 -2.71342e-11 -0)
(0 -4.17505e-12 -0)
(0 3.45556e-11 -0)
(0 -4.22253e-11 -0)
(0 2.22737e-11 -0)
(0 1.1073e-11 -0)
(0 -3.61177e-11 -0)
(0 1.37122e-11 -0)
(0 3.21938e-11 -0)
(0 -4.98643e-15 -0)
(0 -2.80113e-14 -0)
(0 -3.84211e-14 -0)
(0 -2.93648e-14 -0)
(0 -2.88773e-14 -0)
(0 -1.54886e-14 -0)
(0 4.90231e-14 -0)
(0 -1.02361e-15 -0)
(0 2.43858e-14 -0)
(0 -4.26782e-14 -0)
(0 1.01121e-15 -0)
(0 -1.06941e-14 -0)
(0 9.61423e-16 -0)
(0 -1.54325e-15 -0)
(0 -2.95958e-14 -0)
(0 -8.06109e-16 -0)
(0 -1.2772e-14 -0)
(0 -1.07803e-14 -0)
(0 -4.91491e-14 -0)
(0 -2.10125e-15 -0)
(0 -1.67228e-11 -0)
(0 1.35403e-11 -0)
(0 -3.02802e-12 -0)
(0 4.26767e-13 -0)
(0 -2.20328e-13 -0)
(0 -1.49926e-13 -0)
(0 -9.30024e-14 -0)
(0 -9.89643e-14 -0)
(0 -1.45882e-14 -0)
(0 -8.76971e-14 -0)
(0 1.36878e-14 -0)
(0 7.99166e-15 -0)
(0 -1.27832e-14 -0)
(0 7.84646e-14 -0)
(0 -1.01265e-15 -0)
(0 2.02151e-15 -0)
(0 4.80306e-14 -0)
(0 -1.42674e-15 -0)
(0 4.81441e-14 -0)
(0 3.46611e-15 -0)
)
;
    }
    frontAndBack
    {
        type            empty;
    }
}


// ************************************************************************* //
