/*--------------------------------*- C++ -*----------------------------------*\
| =========                 |                                                 |
| \\      /  F ield         | OpenFOAM: The Open Source CFD Toolbox           |
|  \\    /   O peration     | Version:  2506                                  |
|   \\  /    A nd           | Website:  www.openfoam.com                      |
|    \\/     M anipulation  |                                                 |
\*---------------------------------------------------------------------------*/
FoamFile
{
    version     2.0;
    format      ascii;
    arch        "LSB;label=32;scalar=64";
    class       volScalarField;
    location    "6.375";
    object      p;
}
// * * * * * * * * * * * * * * * * * * * * * * * * * * * * * * * * * * * * * //

dimensions      [0 2 -2 0 0 0 0];

internalField   nonuniform List<scalar> 
400
(
8.67619e-16
3.58014e-15
2.80409e-15
3.53923e-15
3.98336e-15
4.29819e-15
4.46876e-15
4.47715e-15
4.67367e-15
4.90229e-15
4.61152e-15
4.40332e-15
4.46694e-15
4.51136e-15
4.60923e-15
4.75357e-15
4.67106e-15
4.81094e-15
4.93151e-15
4.39276e-15
3.22897e-15
0
3.21115e-15
3.35187e-15
4.10395e-15
4.36082e-15
4.54917e-15
4.69945e-15
4.52127e-15
4.73023e-15
4.52944e-15
4.56873e-15
4.69556e-15
4.49366e-15
4.64978e-15
4.74636e-15
4.77996e-15
4.82561e-15
4.72277e-15
4.39929e-15
3.01303e-15
3.38284e-15
3.42184e-15
3.88229e-15
4.18779e-15
4.47273e-15
4.49215e-15
4.55433e-15
4.54271e-15
4.7087e-15
4.7701e-15
4.64638e-15
4.69405e-15
4.62074e-15
4.69154e-15
4.76313e-15
4.76313e-15
4.71766e-15
4.77049e-15
4.62726e-15
2.79317e-15
4.9825e-15
3.81649e-15
4.22619e-15
4.24916e-15
4.59956e-15
4.88729e-15
4.73163e-15
4.67911e-15
4.61273e-15
4.74527e-15
4.71299e-15
4.8007e-15
4.75302e-15
4.61241e-15
4.76186e-15
4.66664e-15
4.59315e-15
4.6881e-15
4.71195e-15
3.66816e-15
2.43154e-15
4.19563e-15
4.37058e-15
4.53122e-15
4.72885e-15
4.82368e-15
4.76804e-15
4.68733e-15
4.68975e-15
4.73022e-15
4.75081e-15
4.77501e-15
4.69139e-15
4.77574e-15
4.7613e-15
4.6507e-15
4.38023e-15
4.51942e-15
4.82051e-15
3.41731e-15
5.45689e-15
4.42073e-15
4.80801e-15
4.74634e-15
4.8327e-15
4.80954e-15
4.82315e-15
4.72199e-15
4.75176e-15
4.71714e-15
4.69359e-15
4.78159e-15
4.68212e-15
4.79675e-15
4.58644e-15
4.48306e-15
4.44407e-15
4.56322e-15
4.95773e-15
4.23693e-15
5.41651e-15
4.33793e-15
4.7434e-15
4.85065e-15
4.96243e-15
5.01635e-15
4.88705e-15
4.69037e-15
4.73997e-15
4.77293e-15
4.69872e-15
4.68627e-15
4.69094e-15
4.72413e-15
4.64067e-15
4.30087e-15
4.46624e-15
4.57526e-15
4.94453e-15
5.12913e-15
1.92105e-15
4.51283e-15
4.49345e-15
4.97481e-15
5.13936e-15
5.05399e-15
4.92703e-15
4.68778e-15
4.91147e-15
4.80101e-15
4.63787e-15
4.8323e-15
4.6043e-15
4.49526e-15
4.61638e-15
4.52165e-15
4.71841e-15
4.57314e-15
4.75565e-15
4.32186e-15
6.3775e-15
4.58629e-15
4.84429e-15
4.86439e-15
4.97013e-15
5.0672e-15
4.9815e-15
4.80107e-15
4.83077e-15
4.78377e-15
4.59583e-15
4.64981e-15
4.78784e-15
4.7611e-15
4.69648e-15
4.61942e-15
4.62099e-15
4.71157e-15
4.74937e-15
4.29896e-15
3.87069e-15
4.71376e-15
4.70027e-15
4.95e-15
4.96323e-15
4.91336e-15
4.7496e-15
4.79559e-15
4.85799e-15
4.80849e-15
4.6067e-15
4.78684e-15
5.11401e-15
4.85062e-15
4.56629e-15
4.41507e-15
4.65504e-15
4.75565e-15
4.78089e-15
4.32389e-15
4.17742e-15
4.65533e-15
4.64024e-15
4.70889e-15
4.90927e-15
4.80575e-15
4.74659e-15
4.85197e-15
4.90971e-15
4.70819e-15
4.79704e-15
4.96954e-15
5.15042e-15
4.8752e-15
4.6145e-15
4.6075e-15
4.7027e-15
4.78223e-15
4.83768e-15
4.4589e-15
5.94689e-15
4.37261e-15
4.67291e-15
4.65233e-15
4.71308e-15
4.77404e-15
4.798e-15
4.75368e-15
4.84202e-15
4.79297e-15
4.87525e-15
4.97827e-15
5.12151e-15
4.88791e-15
4.51004e-15
4.64363e-15
4.72627e-15
4.84063e-15
4.94993e-15
4.98279e-15
1.61167e-15
4.42635e-15
4.39422e-15
4.59831e-15
4.57637e-15
4.73502e-15
4.73812e-15
4.84985e-15
4.87628e-15
4.90354e-15
4.88054e-15
4.93878e-15
4.99421e-15
4.81819e-15
4.52549e-15
4.89249e-15
4.79975e-15
4.76854e-15
4.89899e-15
4.20376e-15
6.40023e-15
4.3287e-15
4.49484e-15
4.4986e-15
4.60897e-15
4.66624e-15
4.71892e-15
4.7476e-15
4.77982e-15
4.84901e-15
4.80419e-15
4.88714e-15
4.90336e-15
4.87414e-15
4.76847e-15
4.93621e-15
4.70044e-15
4.78241e-15
4.97855e-15
4.37731e-15
4.11425e-15
4.41957e-15
4.5142e-15
4.44849e-15
4.43517e-15
4.56338e-15
4.70149e-15
4.70392e-15
4.72677e-15
4.83045e-15
4.80415e-15
4.79673e-15
4.80946e-15
4.77045e-15
4.75457e-15
4.76445e-15
4.68742e-15
4.9062e-15
4.98179e-15
4.74857e-15
2.58213e-15
4.429e-15
4.4106e-15
4.46449e-15
4.41466e-15
4.4622e-15
4.75069e-15
4.6315e-15
4.59922e-15
4.70462e-15
4.74196e-15
4.75983e-15
4.92267e-15
4.84651e-15
4.73023e-15
4.63818e-15
4.62179e-15
4.90428e-15
5.06064e-15
3.87063e-15
5.66076e-15
4.30757e-15
4.34314e-15
4.22883e-15
4.38214e-15
4.4765e-15
4.58248e-15
4.53144e-15
4.60832e-15
4.77482e-15
4.75151e-15
4.79613e-15
4.79186e-15
4.85719e-15
4.81256e-15
4.70659e-15
4.77717e-15
4.79562e-15
5.02337e-15
4.11367e-15
4.00497e-15
4.1279e-15
4.1919e-15
4.30023e-15
4.43107e-15
4.45169e-15
4.53161e-15
4.64697e-15
4.69006e-15
4.78598e-15
4.77763e-15
4.68273e-15
4.60318e-15
4.84402e-15
4.82106e-15
4.78181e-15
4.8605e-15
4.94271e-15
5.21395e-15
4.4384e-15
2.35192e-15
3.99622e-15
4.0325e-15
4.31957e-15
4.38254e-15
4.42049e-15
4.59265e-15
4.73531e-15
4.68819e-15
4.67004e-15
4.61753e-15
4.60142e-15
4.74381e-15
4.83995e-15
4.82712e-15
4.72167e-15
4.85754e-15
5.04611e-15
5.40334e-15
3.04161e-15
5.0159e-15
4.08726e-15
4.3399e-15
4.35495e-15
4.40541e-15
4.47874e-15
4.61035e-15
4.75967e-15
4.66081e-15
4.53456e-15
4.54532e-15
4.48384e-15
4.57727e-15
4.77665e-15
4.91269e-15
4.86181e-15
4.95111e-15
5.13403e-15
5.40502e-15
)
;

boundaryField
{
    movingWall
    {
        type            zeroGradient;
    }
    fixedWalls
    {
        type            zeroGradient;
    }
    frontAndBack
    {
        type            empty;
    }
}


// ************************************************************************* //
