/*--------------------------------*- C++ -*----------------------------------*\
| =========                 |                                                 |
| \\      /  F ield         | OpenFOAM: The Open Source CFD Toolbox           |
|  \\    /   O peration     | Version:  2506                                  |
|   \\  /    A nd           | Website:  www.openfoam.com                      |
|    \\/     M anipulation  |                                                 |
\*---------------------------------------------------------------------------*/
FoamFile
{
    version     2.0;
    format      ascii;
    arch        "LSB;label=32;scalar=64";
    class       volScalarField;
    location    "6.375";
    object      QField;
}
// * * * * * * * * * * * * * * * * * * * * * * * * * * * * * * * * * * * * * //

dimensions      [0 0 -2 0 0 0 0];

internalField   nonuniform List<scalar> 
400
(
-2.76793e-23
-9.08995e-24
1.90714e-25
-7.51531e-26
7.12918e-27
-2.25321e-27
-1.85413e-28
8.25062e-28
7.84638e-28
-2.59239e-28
-1.34801e-27
-4.33229e-28
6.76183e-28
0
-1.26005e-29
-1.09586e-28
-3.87086e-29
1.36849e-28
-2.02485e-28
0
-4.69088e-23
-1.39674e-23
-8.54126e-25
8.95918e-27
-3.9692e-27
2.624e-28
0
-5.10816e-28
-7.23705e-28
6.74537e-30
-6.44926e-30
0
-4.2618e-28
-3.91432e-28
0
0
0
0
-5.6742e-28
-4.53125e-28
-4.32634e-23
-1.45251e-23
-8.46757e-26
-5.46119e-26
-5.53036e-28
0
2.13188e-28
0
4.96251e-28
-1.99397e-28
-4.76204e-28
0
0
-2.50724e-28
-3.36602e-28
3.43813e-28
2.06658e-28
7.47612e-28
-3.11199e-29
0
-3.72316e-23
-1.15296e-23
-5.54633e-25
-1.09009e-26
-6.67974e-27
-1.1442e-27
-1.4441e-27
0
1.66522e-28
-1.09674e-27
5.41618e-29
-6.90056e-28
0
0
-1.50293e-27
-3.79497e-28
1.05046e-27
-1.28601e-28
-5.49864e-28
0
-3.27146e-23
-9.2791e-24
-5.53941e-25
-1.76803e-26
-6.76746e-28
5.42292e-28
4.56605e-27
3.73225e-27
1.18711e-27
3.32277e-29
4.37362e-29
9.58466e-29
-2.61955e-28
-2.34134e-29
1.18484e-28
-1.72194e-28
-1.97724e-28
-5.54984e-28
9.97988e-29
0
-2.4387e-23
-7.73323e-24
-3.59735e-25
-3.0498e-27
0
-5.49592e-28
-2.93135e-28
-5.9012e-28
-1.04292e-27
-2.70127e-28
0
0
-1.32994e-27
0
-7.14141e-28
1.68869e-28
5.0476e-30
2.12217e-29
-1.06998e-28
-3.44202e-28
-1.35313e-23
-6.99261e-24
2.52845e-25
-6.16784e-26
1.13543e-26
-2.68965e-27
1.89352e-27
-2.64141e-29
-2.21629e-27
-1.34241e-27
1.61596e-27
1.22318e-27
-1.18871e-29
-4.35422e-28
-3.57473e-28
5.14722e-28
-1.17531e-27
3.11766e-28
1.45219e-27
-1.40946e-28
-7.01901e-24
-3.60851e-24
-1.43817e-25
7.62603e-27
2.03121e-27
-4.26992e-28
7.20675e-28
0
-2.72163e-28
-6.08665e-28
-1.41291e-28
-9.07109e-28
1.20994e-27
-1.79553e-27
-1.17983e-27
1.38782e-27
-2.23976e-28
-4.7316e-28
-1.55589e-27
-3.1744e-29
-6.63497e-24
-3.46034e-24
-1.06046e-25
-2.82641e-27
6.43677e-27
-1.29835e-27
-2.22724e-28
7.94147e-28
8.68446e-28
1.46312e-28
1.39857e-27
5.58753e-28
6.0242e-28
-1.38476e-28
-1.5322e-28
9.89885e-28
-2.91196e-28
0
0
-3.05361e-28
-7.38768e-24
-4.15283e-24
1.67641e-25
-2.20168e-26
5.46467e-27
-1.27881e-27
7.41352e-28
-6.78877e-28
4.95222e-28
2.82734e-30
0
0
0
-1.89702e-28
-2.04992e-27
3.79928e-29
-8.77872e-28
0
-1.44768e-28
3.56096e-28
-6.47662e-24
-2.10407e-24
-1.44346e-25
4.11349e-26
-6.06058e-28
1.17028e-27
-1.22191e-27
-2.0633e-27
-3.39552e-28
-4.36444e-28
0
-3.22825e-28
4.62618e-27
6.15619e-28
0
1.87658e-27
6.48397e-28
0
-2.22658e-29
-3.18985e-28
-3.56769e-24
-1.23805e-24
-2.59159e-27
-1.63439e-26
4.79807e-27
-4.0957e-28
-4.68549e-28
-1.11326e-27
3.22894e-28
1.11839e-27
1.06229e-27
-5.50004e-28
2.61116e-29
-5.98491e-29
-3.33705e-27
-1.72367e-27
0
7.28495e-28
-9.3787e-29
-1.83334e-28
1.8326e-24
-2.6051e-25
-6.48845e-26
2.57432e-26
-2.11578e-27
1.0029e-27
5.53961e-28
8.35246e-28
-7.45689e-28
-1.16716e-27
-3.97485e-28
5.91601e-28
4.14328e-27
1.8177e-27
-2.00045e-28
-7.43016e-28
1.95859e-27
0
-8.65113e-28
0
-9.09201e-25
-1.08227e-24
0
7.68803e-27
-8.12137e-27
9.36704e-29
1.23976e-27
6.40197e-29
6.10046e-28
-1.82271e-28
2.38906e-29
-4.24705e-28
1.9245e-28
-6.26827e-28
-1.23521e-27
-5.55943e-28
-1.08631e-27
1.07646e-28
-2.23458e-28
2.33925e-29
-8.69553e-24
-4.62862e-24
3.93442e-25
-4.13465e-26
8.38197e-27
-4.3793e-27
0
-3.42961e-28
0
5.56429e-28
7.71483e-28
1.10971e-27
3.62297e-28
-9.06938e-28
-1.64786e-27
1.00918e-28
1.57923e-28
3.00849e-28
-4.52074e-28
1.10448e-28
-1.74906e-23
-6.39713e-24
-5.98591e-26
-4.11396e-26
1.05904e-26
-1.98153e-27
-1.01988e-27
-1.42695e-27
-7.56765e-28
-3.49367e-28
-8.76325e-28
1.07489e-28
9.93524e-28
5.91004e-28
1.43047e-28
-5.76751e-28
-2.58154e-29
1.38239e-28
-3.85239e-29
0
-2.6995e-23
-8.21471e-24
-4.45892e-25
-2.50561e-26
1.53714e-27
-2.52461e-28
8.3536e-28
4.19181e-28
1.86226e-28
5.02272e-28
2.04024e-28
4.31863e-29
-1.96197e-28
1.46401e-27
1.19067e-27
-1.30825e-27
0
7.59067e-28
-1.07094e-27
0
-3.68239e-23
-1.2057e-23
-1.73105e-25
-2.81678e-26
2.39335e-27
-2.05443e-27
0
-2.53099e-28
-1.14628e-28
5.19801e-28
6.95862e-28
6.05726e-28
-4.05925e-28
-1.1581e-27
-3.17454e-28
-2.03569e-28
5.36346e-28
7.59237e-28
-2.44873e-28
-5.47302e-28
-3.79792e-23
-1.15269e-23
-6.27992e-25
-2.04522e-26
2.40803e-27
-1.89796e-28
-3.15598e-28
-5.56195e-28
-9.96484e-28
4.29751e-28
9.44062e-28
4.2148e-28
-3.13877e-28
-3.07133e-28
0
4.62641e-29
-4.8501e-28
0
1.86167e-28
2.16126e-28
-1.80115e-23
-5.28358e-24
-4.23364e-25
1.80903e-26
-9.12857e-27
6.03985e-28
-4.46841e-28
9.37318e-28
5.64724e-28
3.75011e-28
-1.66609e-28
-5.69208e-28
-3.5299e-29
-2.14541e-28
-2.69432e-28
-1.31719e-29
-4.29783e-28
0
0
0
)
;

boundaryField
{
    movingWall
    {
        type            calculated;
        value           nonuniform List<scalar> 
20
(
6.26468e-24
4.66582e-24
-1.03619e-24
1.31374e-25
-3.32535e-26
3.2826e-27
-5.30868e-28
2.30355e-27
2.21149e-27
6.14418e-28
-1.52514e-27
-3.60242e-28
-5.78339e-29
-1.05451e-27
-8.82876e-28
-1.05119e-27
-1.1478e-27
0
0
0
)
;
    }
    fixedWalls
    {
        type            calculated;
        value           nonuniform List<scalar> 
60
(
-1.40767e-22
-2.55617e-22
-2.22162e-22
-1.93691e-22
-1.76545e-22
-1.31753e-22
-6.95161e-23
-4.86473e-23
-4.33543e-23
-3.87112e-23
-3.41397e-23
-1.9244e-23
-5.28831e-25
-1.19177e-23
-4.26387e-23
-9.52183e-23
-1.48834e-22
-1.88089e-22
-2.0899e-22
-1.03437e-22
0
-7.42399e-28
0
0
-1.54057e-28
0
1.32569e-28
-7.06939e-28
3.88753e-28
4.2211e-28
-7.61443e-28
-3.00374e-28
0
3.83263e-29
6.75107e-29
0
0
-9.23944e-28
2.00222e-28
0
-1.57622e-25
2.43703e-25
1.29378e-25
-1.38649e-25
1.16804e-26
-4.92221e-27
-2.87505e-28
9.01187e-28
8.81834e-28
-1.40109e-27
6.38802e-28
0
-5.47057e-28
-9.1955e-28
-5.7544e-28
0
5.17103e-28
-2.69812e-28
1.65876e-28
0
)
;
    }
    frontAndBack
    {
        type            empty;
    }
}


// ************************************************************************* //
