/*--------------------------------*- C++ -*----------------------------------*\
| =========                 |                                                 |
| \\      /  F ield         | OpenFOAM: The Open Source CFD Toolbox           |
|  \\    /   O peration     | Version:  2506                                  |
|   \\  /    A nd           | Website:  www.openfoam.com                      |
|    \\/     M anipulation  |                                                 |
\*---------------------------------------------------------------------------*/
FoamFile
{
    version     2.0;
    format      ascii;
    arch        "LSB;label=32;scalar=64";
    class       volScalarField;
    location    "6.375";
    object      Uy;
}
// * * * * * * * * * * * * * * * * * * * * * * * * * * * * * * * * * * * * * //

dimensions      [0 1 -1 0 0 0 0];

internalField   nonuniform List<scalar> 
400
(
1.27008e-13
-2.72821e-14
6.26032e-15
-1.44281e-15
2.16298e-16
-1.27704e-16
-6.07972e-17
-8.58588e-17
4.06674e-17
6.00229e-17
2.94595e-17
-7.68552e-17
-5.04571e-17
5.09763e-17
5.3075e-17
6.11028e-17
3.28598e-17
2.48858e-17
4.71272e-17
-1.24661e-17
2.44109e-14
-4.99966e-15
1.10729e-15
-3.3244e-16
5.5101e-18
-5.73737e-17
-9.12984e-17
-1.3475e-16
-4.1809e-17
-2.90137e-17
-7.2807e-17
-1.31806e-16
-8.357e-17
-4.31631e-17
-2.81732e-17
-9.72681e-18
-4.71408e-17
-4.68393e-17
-2.85431e-17
-7.00281e-17
-1.27856e-13
2.7125e-14
-6.62873e-15
1.21506e-15
-3.78356e-16
-4.04119e-17
-1.47294e-16
-1.63744e-17
1.29039e-17
7.42776e-17
2.82698e-17
4.5691e-17
-1.61623e-17
-7.6627e-17
-6.85121e-18
-3.52322e-17
-7.02735e-17
-1.11476e-16
-1.62214e-16
-9.60528e-17
8.42916e-14
-1.91589e-14
4.23128e-15
-1.03101e-15
2.09544e-16
-6.75609e-17
-3.66833e-17
-4.76168e-17
-4.00288e-17
1.3819e-17
1.5037e-17
-6.16321e-18
-9.04958e-17
-1.35664e-16
-1.55895e-16
-9.93458e-17
-1.58852e-17
9.58354e-18
-6.33305e-17
-7.3412e-17
5.49218e-15
-1.337e-15
2.18119e-16
4.58187e-17
1.5914e-16
1.70656e-16
1.09123e-16
-1.10106e-16
-1.66269e-16
-1.83101e-16
-1.69334e-16
-1.87135e-16
-1.87014e-16
-1.5492e-16
-1.79572e-16
-2.77929e-17
-9.51117e-18
-3.53741e-17
-4.2345e-17
-7.21933e-17
-9.22855e-14
2.03116e-14
-4.53405e-15
1.18261e-15
-1.65243e-16
1.13422e-16
5.60797e-17
3.84189e-17
-7.78442e-18
-1.10768e-16
-1.44795e-16
-1.18222e-16
-9.35238e-17
-1.14535e-16
-7.24808e-17
1.7449e-17
2.81695e-17
-9.27929e-17
-6.44318e-17
-3.87215e-17
1.14911e-13
-2.44002e-14
6.01289e-15
-1.07936e-15
3.24055e-16
-3.21073e-17
7.59784e-17
1.07609e-16
6.93129e-17
-8.34412e-17
-5.45026e-17
5.07817e-17
5.83159e-17
3.41957e-17
1.81553e-17
-9.72924e-17
-1.17891e-16
-1.20146e-16
-2.86971e-18
5.4795e-17
-4.07871e-14
9.06344e-15
-2.07384e-15
5.29434e-16
-1.85019e-17
1.47777e-16
6.02642e-17
1.48362e-17
-6.1248e-17
-8.16882e-17
-6.98649e-17
-2.95612e-17
-4.81513e-17
-5.6497e-17
-6.53876e-18
-7.75005e-17
-1.77211e-16
-1.18817e-16
-5.34921e-17
6.52036e-17
-5.52183e-14
1.18183e-14
-2.753e-15
6.51684e-16
-5.0637e-17
1.70157e-16
1.30692e-16
1.44255e-16
1.91076e-17
3.74546e-17
-3.48719e-17
-9.48366e-17
-1.37944e-16
-2.55409e-16
-1.26938e-16
1.62362e-17
3.96558e-17
-3.28632e-17
-1.0586e-16
-6.79817e-18
9.74339e-14
-2.15407e-14
5.18856e-15
-9.24552e-16
4.30138e-16
3.143e-17
1.94238e-16
1.68185e-16
6.16979e-17
-1.45191e-17
-8.30482e-17
-1.86625e-16
-1.47042e-16
-3.84257e-17
4.99896e-17
5.70775e-17
2.84201e-17
-5.48726e-17
-9.24434e-17
-3.89328e-17
-1.03619e-13
2.30581e-14
-5.16141e-15
1.34873e-15
-1.02708e-16
1.75026e-16
1.1317e-16
1.9024e-17
-4.68013e-17
-1.06248e-16
-1.69859e-16
-2.18048e-16
-5.11064e-19
2.08642e-16
1.25158e-16
3.0253e-17
-1.0562e-16
-7.34493e-17
-5.24502e-17
-6.52346e-17
6.68191e-14
-1.42857e-14
3.22146e-15
-7.64679e-16
2.06542e-16
1.20409e-16
5.54371e-17
-5.24546e-17
-8.14696e-17
2.34421e-17
5.60685e-17
1.01825e-16
8.7451e-17
1.11458e-16
6.53706e-17
3.35349e-17
-1.07094e-16
7.86592e-18
7.17889e-17
-2.67354e-17
1.32837e-14
-3.4854e-15
7.69902e-16
-2.23579e-16
6.79455e-17
3.6616e-17
-5.53893e-17
-1.6776e-16
-1.55365e-16
-3.62484e-17
5.99379e-17
1.10398e-16
-5.87837e-17
-1.95323e-16
-2.07304e-16
-2.01475e-16
-1.23917e-16
1.55489e-17
4.79199e-17
2.40356e-18
-8.85573e-14
1.92567e-14
-4.40759e-15
1.08324e-15
-1.05236e-16
8.44902e-17
-9.30005e-17
-1.44204e-16
-6.93814e-17
-3.16707e-17
-1.0621e-17
-3.60777e-17
2.70508e-17
3.49237e-17
-2.68905e-17
-1.03527e-16
-3.43426e-17
-8.30229e-17
-8.77963e-17
-3.85813e-18
1.07393e-13
-2.30504e-14
5.25097e-15
-1.16904e-15
3.19527e-16
2.05767e-18
-5.7366e-17
-1.67458e-16
-1.20631e-16
-1.03495e-16
-5.22025e-17
-8.61904e-18
5.01504e-17
3.59357e-17
2.05516e-17
1.1084e-17
7.64722e-17
-1.80477e-17
-3.45214e-17
-6.22676e-18
-5.85303e-14
1.32038e-14
-3.0717e-15
6.23423e-16
-3.15681e-16
-1.58008e-16
-1.85487e-16
-1.4461e-16
-7.63298e-17
-5.15444e-17
-4.41064e-17
-1.88942e-17
-5.73251e-17
-1.81282e-16
-2.9359e-16
-2.34057e-16
-7.25126e-17
1.42043e-18
6.71686e-17
-2.01527e-18
-3.04608e-14
6.55544e-15
-1.33137e-15
2.28688e-16
-3.37137e-16
-3.38417e-16
-2.32103e-16
-1.22548e-16
-7.74523e-17
2.51468e-17
1.07853e-16
1.00418e-16
9.19203e-17
5.41581e-17
-1.51065e-16
-2.017e-16
-1.63767e-16
-1.06728e-16
-2.37443e-17
-3.193e-17
1.01814e-13
-2.20743e-14
5.26854e-15
-1.19048e-15
1.59177e-16
-1.46116e-16
-6.19418e-17
-1.05946e-16
-1.55319e-16
-1.07442e-16
-5.94325e-17
-2.18659e-17
1.50587e-17
7.54675e-18
3.47037e-17
1.99745e-17
9.66909e-18
-7.8964e-17
-1.30385e-16
-9.47134e-17
-3.79396e-14
8.34494e-15
-1.93797e-15
4.02052e-16
-1.75764e-16
-7.00008e-17
-1.40753e-16
-6.16174e-17
-3.81527e-17
-1.13613e-17
-7.77903e-17
-1.33412e-16
-1.16665e-16
-9.48117e-17
-3.39446e-17
-2.78807e-17
-5.1013e-17
-7.76773e-17
-1.14086e-16
-5.51101e-17
-8.3466e-14
1.79771e-14
-4.3167e-15
8.20073e-16
-3.68575e-16
-1.21097e-16
-1.6161e-16
-5.23436e-17
1.12945e-17
6.52587e-17
8.04718e-17
3.58656e-17
2.42446e-17
2.28425e-17
-5.4907e-17
-7.65604e-17
-1.04698e-16
-7.94116e-17
-6.1702e-17
-5.25314e-18
)
;

boundaryField
{
    movingWall
    {
        type            calculated;
        value           uniform -0;
    }
    fixedWalls
    {
        type            calculated;
        value           uniform -0;
    }
    frontAndBack
    {
        type            empty;
    }
}


// ************************************************************************* //
