/*--------------------------------*- C++ -*----------------------------------*\
| =========                 |                                                 |
| \\      /  F ield         | OpenFOAM: The Open Source CFD Toolbox           |
|  \\    /   O peration     | Version:  2506                                  |
|   \\  /    A nd           | Website:  www.openfoam.com                      |
|    \\/     M anipulation  |                                                 |
\*---------------------------------------------------------------------------*/
FoamFile
{
    version     2.0;
    format      ascii;
    arch        "LSB;label=32;scalar=64";
    class       volVectorField;
    location    "6.375";
    object      vorticityField;
}
// * * * * * * * * * * * * * * * * * * * * * * * * * * * * * * * * * * * * * //

dimensions      [0 0 -1 0 0 0 0];

internalField   nonuniform List<vector> 
400
(
(0 -0 9.21365e-12)
(0 -0 -1.17495e-11)
(0 -0 2.77367e-12)
(0 -0 -4.95982e-13)
(0 -0 1.8572e-13)
(0 -0 5.36056e-14)
(0 -0 5.83946e-14)
(0 -0 9.14616e-14)
(0 -0 6.87983e-14)
(0 -0 8.01944e-14)
(0 -0 6.76273e-14)
(0 -0 4.62184e-14)
(0 -0 9.40983e-14)
(0 -0 1.03532e-14)
(0 -0 5.52228e-14)
(0 -0 5.21886e-14)
(0 -0 -3.6217e-15)
(0 -0 5.56368e-14)
(0 -0 5.04749e-14)
(0 -0 -3.46611e-15)
(0 -0 1.26349e-12)
(0 -0 -2.22194e-12)
(0 -0 3.58302e-13)
(0 -0 -1.91494e-13)
(0 -0 4.01548e-16)
(0 -0 -3.67859e-14)
(0 -0 -7.73765e-15)
(0 -0 -2.21561e-14)
(0 -0 -4.36365e-14)
(0 -0 -3.02049e-14)
(0 -0 -1.02792e-14)
(0 -0 -1.0763e-15)
(0 -0 -1.82408e-14)
(0 -0 5.97498e-14)
(0 -0 3.34363e-15)
(0 -0 -1.89675e-15)
(0 -0 -3.71125e-15)
(0 -0 1.85977e-15)
(0 -0 -2.31888e-15)
(0 -0 9.85712e-15)
(0 -0 -6.19704e-12)
(0 -0 1.10385e-11)
(0 -0 -2.59099e-12)
(0 -0 5.43722e-13)
(0 -0 -1.25547e-13)
(0 -0 2.31062e-14)
(0 -0 2.95088e-14)
(0 -0 1.60198e-14)
(0 -0 6.32753e-14)
(0 -0 -5.26735e-14)
(0 -0 -2.85866e-15)
(0 -0 -4.44322e-15)
(0 -0 -1.22318e-14)
(0 -0 9.3111e-16)
(0 -0 -7.71757e-14)
(0 -0 -6.05523e-14)
(0 -0 -3.47294e-14)
(0 -0 -9.05092e-14)
(0 -0 -7.97729e-14)
(0 -0 2.58266e-14)
(0 -0 3.01671e-12)
(0 -0 -7.05735e-12)
(0 -0 1.65016e-12)
(0 -0 -3.75068e-13)
(0 -0 4.21345e-14)
(0 -0 -2.46228e-14)
(0 -0 -2.51107e-14)
(0 -0 -3.34552e-16)
(0 -0 3.32486e-14)
(0 -0 5.97167e-14)
(0 -0 -2.91033e-14)
(0 -0 -6.47634e-14)
(0 -0 -1.29501e-14)
(0 -0 -6.53991e-15)
(0 -0 -2.34732e-14)
(0 -0 -1.31041e-14)
(0 -0 9.22081e-14)
(0 -0 2.23605e-14)
(0 -0 1.88055e-14)
(0 -0 1.36742e-14)
(0 -0 8.94223e-15)
(0 -0 -5.81616e-13)
(0 -0 8.40715e-14)
(0 -0 -6.01079e-14)
(0 -0 -4.17263e-14)
(0 -0 -1.13422e-13)
(0 -0 -1.90707e-13)
(0 -0 -1.63064e-13)
(0 -0 -1.6993e-13)
(0 -0 -1.08727e-13)
(0 -0 -1.08824e-13)
(0 -0 -5.59782e-14)
(0 -0 -7.80937e-14)
(0 -0 -1.07676e-13)
(0 -0 3.98177e-14)
(0 -0 4.41112e-14)
(0 -0 -5.49682e-14)
(0 -0 -3.28338e-15)
(0 -0 -3.0787e-14)
(0 -0 1.14538e-14)
(0 -0 -4.83926e-12)
(0 -0 8.17884e-12)
(0 -0 -1.83158e-12)
(0 -0 4.36881e-13)
(0 -0 -1.06919e-13)
(0 -0 2.21323e-14)
(0 -0 1.96047e-14)
(0 -0 -6.38641e-15)
(0 -0 1.21864e-14)
(0 -0 -1.37011e-14)
(0 -0 -7.45423e-16)
(0 -0 5.12714e-15)
(0 -0 3.68726e-16)
(0 -0 2.1043e-15)
(0 -0 4.03034e-14)
(0 -0 6.42751e-14)
(0 -0 -3.81292e-14)
(0 -0 -3.63652e-14)
(0 -0 5.40715e-15)
(0 -0 1.03153e-14)
(0 -0 7.47902e-12)
(0 -0 -1.02393e-11)
(0 -0 2.4405e-12)
(0 -0 -4.60463e-13)
(0 -0 2.13145e-13)
(0 -0 8.36126e-14)
(0 -0 1.49497e-13)
(0 -0 1.34859e-13)
(0 -0 8.93152e-14)
(0 -0 9.60387e-14)
(0 -0 1.48948e-13)
(0 -0 1.19702e-13)
(0 -0 7.96566e-14)
(0 -0 1.04404e-13)
(0 -0 -1.31488e-14)
(0 -0 -1.36046e-14)
(0 -0 2.48197e-14)
(0 -0 3.86072e-14)
(0 -0 9.88093e-14)
(0 -0 -3.22976e-14)
(0 -0 -2.41342e-12)
(0 -0 3.57317e-12)
(0 -0 -9.07611e-13)
(0 -0 1.51323e-13)
(0 -0 -3.81657e-14)
(0 -0 -4.63335e-14)
(0 -0 -6.75042e-14)
(0 -0 -1.21512e-14)
(0 -0 -9.65244e-15)
(0 -0 -5.50718e-14)
(0 -0 -2.18924e-14)
(0 -0 -5.20387e-14)
(0 -0 -5.69037e-14)
(0 -0 -5.00489e-14)
(0 -0 -2.10035e-15)
(0 -0 -9.83824e-14)
(0 -0 5.00785e-14)
(0 -0 1.23719e-14)
(0 -0 -3.58081e-14)
(0 -0 2.59339e-14)
(0 -0 -3.93342e-12)
(0 -0 5.02969e-12)
(0 -0 -1.19797e-12)
(0 -0 2.16026e-13)
(0 -0 -1.56573e-13)
(0 -0 -3.60772e-14)
(0 -0 -5.68003e-14)
(0 -0 -1.19579e-13)
(0 -0 -9.19952e-14)
(0 -0 -3.2503e-14)
(0 -0 -1.21649e-13)
(0 -0 -6.45173e-14)
(0 -0 -7.02673e-14)
(0 -0 -8.02146e-14)
(0 -0 2.71645e-14)
(0 -0 9.79745e-14)
(0 -0 -5.912e-14)
(0 -0 -1.45516e-14)
(0 -0 2.6065e-15)
(0 -0 -1.58392e-14)
(0 -0 6.66775e-12)
(0 -0 -8.79086e-12)
(0 -0 2.14293e-12)
(0 -0 -4.21632e-13)
(0 -0 1.49808e-13)
(0 -0 3.06202e-14)
(0 -0 6.78856e-14)
(0 -0 -1.32541e-14)
(0 -0 -4.53755e-14)
(0 -0 -4.15797e-14)
(0 -0 -1.72106e-14)
(0 -0 -6.39938e-15)
(0 -0 1.48199e-14)
(0 -0 7.39133e-14)
(0 -0 9.55032e-15)
(0 -0 -2.15694e-15)
(0 -0 -3.83001e-14)
(0 -0 -1.20864e-14)
(0 -0 1.59398e-15)
(0 -0 4.02427e-14)
(0 -0 -7.32426e-12)
(0 -0 9.65603e-12)
(0 -0 -2.11672e-12)
(0 -0 5.87185e-13)
(0 -0 -1.1737e-13)
(0 -0 7.57979e-14)
(0 -0 3.86099e-14)
(0 -0 3.82129e-14)
(0 -0 1.45778e-14)
(0 -0 1.47992e-14)
(0 -0 -1.118e-14)
(0 -0 4.40399e-14)
(0 -0 1.51089e-13)
(0 -0 9.38821e-14)
(0 -0 -1.78389e-14)
(0 -0 -1.04393e-13)
(0 -0 -3.74753e-14)
(0 -0 5.31698e-15)
(0 -0 -2.62836e-14)
(0 -0 -1.53366e-14)
(0 -0 5.65992e-12)
(0 -0 -6.41398e-12)
(0 -0 1.43342e-12)
(0 -0 -2.47282e-13)
(0 -0 1.42719e-13)
(0 -0 1.19946e-14)
(0 -0 9.81865e-15)
(0 -0 6.76245e-14)
(0 -0 8.89048e-14)
(0 -0 9.5069e-14)
(0 -0 1.43364e-13)
(0 -0 1.11558e-13)
(0 -0 2.80684e-14)
(0 -0 2.4897e-14)
(0 -0 7.35228e-14)
(0 -0 9.85863e-15)
(0 -0 -2.5669e-15)
(0 -0 7.20984e-14)
(0 -0 2.36449e-14)
(0 -0 -4.50535e-15)
(0 -0 -1.58587e-13)
(0 -0 -1.11585e-12)
(0 -0 1.90657e-13)
(0 -0 -1.51511e-13)
(0 -0 -5.52957e-14)
(0 -0 -9.36486e-14)
(0 -0 -4.75426e-14)
(0 -0 -1.18418e-13)
(0 -0 -4.1059e-14)
(0 -0 -3.26799e-14)
(0 -0 -1.24404e-14)
(0 -0 -9.31873e-14)
(0 -0 -1.66097e-13)
(0 -0 -1.23272e-13)
(0 -0 -8.19304e-14)
(0 -0 8.3387e-15)
(0 -0 1.30123e-13)
(0 -0 1.71836e-14)
(0 -0 -1.31453e-15)
(0 -0 -5.03235e-15)
(0 -0 -6.0627e-12)
(0 -0 8.19813e-12)
(0 -0 -1.81734e-12)
(0 -0 4.30235e-13)
(0 -0 -1.85601e-14)
(0 -0 1.22352e-15)
(0 -0 -7.70796e-14)
(0 -0 2.9467e-14)
(0 -0 6.54635e-14)
(0 -0 5.87604e-15)
(0 -0 -5.46508e-14)
(0 -0 -2.33379e-14)
(0 -0 3.42052e-14)
(0 -0 -5.39413e-15)
(0 -0 -1.38451e-14)
(0 -0 -2.78503e-14)
(0 -0 2.05044e-15)
(0 -0 -5.95555e-14)
(0 -0 7.91647e-15)
(0 -0 9.16545e-15)
(0 -0 7.70241e-12)
(0 -0 -9.80761e-12)
(0 -0 2.37787e-12)
(0 -0 -4.1183e-13)
(0 -0 1.98425e-13)
(0 -0 4.36259e-14)
(0 -0 -1.69516e-14)
(0 -0 4.78836e-14)
(0 -0 6.39635e-15)
(0 -0 8.8158e-14)
(0 -0 9.08027e-14)
(0 -0 1.18656e-13)
(0 -0 8.57706e-14)
(0 -0 1.0546e-13)
(0 -0 7.883e-14)
(0 -0 8.69072e-14)
(0 -0 -5.71233e-14)
(0 -0 -3.82044e-14)
(0 -0 -2.5923e-14)
(0 -0 3.11799e-14)
(0 -0 -3.39423e-12)
(0 -0 5.05796e-12)
(0 -0 -1.36646e-12)
(0 -0 1.40077e-13)
(0 -0 -2.13668e-13)
(0 -0 -6.82958e-14)
(0 -0 -5.28703e-14)
(0 -0 -9.75045e-14)
(0 -0 -7.20086e-14)
(0 -0 -1.05198e-13)
(0 -0 -1.3226e-13)
(0 -0 -8.2637e-14)
(0 -0 -7.04489e-14)
(0 -0 -5.07315e-14)
(0 -0 -3.23826e-14)
(0 -0 2.21077e-14)
(0 -0 7.77579e-14)
(0 -0 4.10732e-14)
(0 -0 2.67615e-14)
(0 -0 -6.51534e-15)
(0 -0 -1.27923e-12)
(0 -0 2.58769e-12)
(0 -0 -7.1399e-13)
(0 -0 4.52132e-14)
(0 -0 -8.38156e-14)
(0 -0 -1.66017e-14)
(0 -0 7.57971e-14)
(0 -0 4.25701e-14)
(0 -0 4.18745e-14)
(0 -0 4.56356e-14)
(0 -0 3.46322e-14)
(0 -0 -2.86983e-14)
(0 -0 -4.62602e-15)
(0 -0 -1.05614e-13)
(0 -0 -1.06901e-13)
(0 -0 -5.54804e-14)
(0 -0 9.49716e-15)
(0 -0 6.82124e-14)
(0 -0 7.47979e-15)
(0 -0 5.56743e-15)
(0 -0 3.3661e-12)
(0 -0 -8.4077e-12)
(0 -0 2.00707e-12)
(0 -0 -4.56727e-13)
(0 -0 1.31541e-13)
(0 -0 4.99321e-15)
(0 -0 4.01693e-15)
(0 -0 1.77674e-14)
(0 -0 5.40606e-14)
(0 -0 6.37987e-14)
(0 -0 8.98728e-14)
(0 -0 8.87643e-14)
(0 -0 5.71514e-14)
(0 -0 2.90696e-14)
(0 -0 1.24277e-15)
(0 -0 7.88117e-14)
(0 -0 -6.4104e-14)
(0 -0 -6.82156e-14)
(0 -0 -1.57494e-15)
(0 -0 -4.59517e-15)
(0 -0 -1.49579e-12)
(0 -0 3.11227e-12)
(0 -0 -8.21394e-13)
(0 -0 1.22011e-13)
(0 -0 -1.2852e-13)
(0 -0 -5.0709e-14)
(0 -0 -5.33718e-14)
(0 -0 -4.39501e-14)
(0 -0 -1.03395e-13)
(0 -0 -1.12384e-13)
(0 -0 -1.20625e-13)
(0 -0 -1.12308e-13)
(0 -0 -7.74552e-14)
(0 -0 -1.8833e-14)
(0 -0 6.69309e-15)
(0 -0 -2.88119e-14)
(0 -0 -3.20847e-14)
(0 -0 -6.30734e-15)
(0 -0 2.25671e-15)
(0 -0 4.40247e-14)
(0 -0 -5.35627e-12)
(0 -0 7.69809e-12)
(0 -0 -1.60729e-12)
(0 -0 4.49023e-13)
(0 -0 -1.28018e-14)
(0 -0 7.49066e-14)
(0 -0 6.10855e-14)
(0 -0 7.15006e-14)
(0 -0 6.59703e-14)
(0 -0 6.11278e-14)
(0 -0 5.12708e-14)
(0 -0 4.85874e-14)
(0 -0 2.58027e-14)
(0 -0 1.91899e-14)
(0 -0 1.71648e-14)
(0 -0 -5.91892e-14)
(0 -0 2.68199e-14)
(0 -0 4.29958e-15)
(0 -0 7.41584e-15)
(0 -0 6.69552e-15)
)
;

boundaryField
{
    movingWall
    {
        type            calculated;
        value           nonuniform List<vector> 
20
(
(0 -0 -1.17891e-11)
(0 -0 9.7357e-12)
(0 -0 -1.49366e-12)
(0 -0 7.50084e-13)
(0 -0 2.16745e-13)
(0 -0 2.42741e-13)
(0 -0 1.84511e-13)
(0 -0 1.50517e-13)
(0 -0 1.89396e-13)
(0 -0 9.57356e-14)
(0 -0 2.19105e-13)
(0 -0 1.27604e-13)
(0 -0 4.31066e-14)
(0 -0 1.25312e-13)
(0 -0 7.88775e-14)
(0 -0 3.94298e-14)
(0 -0 4.41238e-14)
(0 -0 4.29958e-15)
(0 -0 7.41584e-15)
(0 -0 6.69552e-15)
)
;
    }
    fixedWalls
    {
        type            calculated;
        value           nonuniform List<vector> 
60
(
(0 -0 5.00443e-11)
(0 -0 9.08672e-12)
(0 -0 -4.72662e-11)
(0 -0 3.02201e-11)
(0 -0 1.7903e-12)
(0 -0 -3.45561e-11)
(0 -0 4.43924e-11)
(0 -0 -1.55559e-11)
(0 -0 -2.16807e-11)
(0 -0 3.8052e-11)
(0 -0 -4.07158e-11)
(0 -0 2.71342e-11)
(0 -0 4.17505e-12)
(0 -0 -3.45556e-11)
(0 -0 4.22253e-11)
(0 -0 -2.22737e-11)
(0 -0 -1.1073e-11)
(0 -0 3.61177e-11)
(0 -0 -1.37122e-11)
(0 -0 -3.21938e-11)
(0 -0 4.98643e-15)
(0 -0 2.80113e-14)
(0 -0 3.84211e-14)
(0 -0 2.93648e-14)
(0 -0 2.88773e-14)
(0 -0 1.54886e-14)
(0 -0 -4.90231e-14)
(0 -0 1.02361e-15)
(0 -0 -2.43858e-14)
(0 -0 4.26782e-14)
(0 -0 -1.01121e-15)
(0 -0 1.06941e-14)
(0 -0 -9.61423e-16)
(0 -0 1.54325e-15)
(0 -0 2.95958e-14)
(0 -0 8.06109e-16)
(0 -0 1.2772e-14)
(0 -0 1.07803e-14)
(0 -0 4.91491e-14)
(0 -0 2.10125e-15)
(0 -0 1.67228e-11)
(0 -0 -1.35403e-11)
(0 -0 3.02802e-12)
(0 -0 -4.26767e-13)
(0 -0 2.20328e-13)
(0 -0 1.49926e-13)
(0 -0 9.30024e-14)
(0 -0 9.89643e-14)
(0 -0 1.45882e-14)
(0 -0 8.76971e-14)
(0 -0 -1.36878e-14)
(0 -0 -7.99166e-15)
(0 -0 1.27832e-14)
(0 -0 -7.84646e-14)
(0 -0 1.01265e-15)
(0 -0 -2.02151e-15)
(0 -0 -4.80306e-14)
(0 -0 1.42674e-15)
(0 -0 -4.81441e-14)
(0 -0 -3.46611e-15)
)
;
    }
    frontAndBack
    {
        type            empty;
    }
}


// ************************************************************************* //
