/*--------------------------------*- C++ -*----------------------------------*\
| =========                 |                                                 |
| \\      /  F ield         | OpenFOAM: The Open Source CFD Toolbox           |
|  \\    /   O peration     | Version:  2506                                  |
|   \\  /    A nd           | Website:  www.openfoam.com                      |
|    \\/     M anipulation  |                                                 |
\*---------------------------------------------------------------------------*/
FoamFile
{
    version     2.0;
    format      ascii;
    arch        "LSB;label=32;scalar=64";
    class       volScalarField;
    location    "6.375";
    object      zeroGradient(epsilon);
}
// * * * * * * * * * * * * * * * * * * * * * * * * * * * * * * * * * * * * * //

dimensions      [0 2 -3 0 0 0 0];

internalField   nonuniform List<scalar> 
400
(
3.23425e-06
3.23424e-06
3.23424e-06
3.23424e-06
3.23423e-06
3.23423e-06
3.23423e-06
3.23423e-06
3.23422e-06
3.23422e-06
3.23422e-06
3.23422e-06
3.23422e-06
3.23422e-06
3.23422e-06
3.23422e-06
3.23422e-06
3.23422e-06
3.23422e-06
3.23422e-06
3.44036e-06
3.38362e-06
3.38833e-06
3.39028e-06
3.3942e-06
3.39621e-06
3.40015e-06
3.40222e-06
3.40617e-06
3.4083e-06
3.41225e-06
3.41447e-06
3.41841e-06
3.42071e-06
3.42465e-06
3.42703e-06
3.43098e-06
3.43342e-06
3.43541e-06
3.43862e-06
3.74633e-06
3.68177e-06
3.6872e-06
3.68946e-06
3.69397e-06
3.69627e-06
3.70079e-06
3.70314e-06
3.70767e-06
3.71007e-06
3.71459e-06
3.71708e-06
3.72158e-06
3.72414e-06
3.72862e-06
3.73126e-06
3.73574e-06
3.73843e-06
3.74068e-06
3.74429e-06
4.04063e-06
3.96915e-06
3.97516e-06
3.97765e-06
3.98264e-06
3.98518e-06
3.99019e-06
3.99278e-06
3.99779e-06
4.00045e-06
4.00545e-06
4.0082e-06
4.01318e-06
4.01602e-06
4.02098e-06
4.0239e-06
4.02885e-06
4.03184e-06
4.03433e-06
4.03831e-06
4.2653e-06
4.18834e-06
4.1948e-06
4.19749e-06
4.20285e-06
4.20559e-06
4.21097e-06
4.21376e-06
4.21915e-06
4.22202e-06
4.22739e-06
4.23035e-06
4.2357e-06
4.23876e-06
4.2441e-06
4.24724e-06
4.25258e-06
4.25579e-06
4.25847e-06
4.26277e-06
4.41461e-06
4.33394e-06
4.34071e-06
4.34352e-06
4.34914e-06
4.352e-06
4.35764e-06
4.36056e-06
4.36621e-06
4.36921e-06
4.37484e-06
4.37795e-06
4.38356e-06
4.38676e-06
4.39235e-06
4.39565e-06
4.40124e-06
4.40461e-06
4.40742e-06
4.41192e-06
4.50671e-06
4.42372e-06
4.43068e-06
4.43357e-06
4.43935e-06
4.44229e-06
4.44809e-06
4.4511e-06
4.4569e-06
4.45999e-06
4.46578e-06
4.46898e-06
4.47474e-06
4.47804e-06
4.48379e-06
4.48719e-06
4.49293e-06
4.4964e-06
4.49929e-06
4.50392e-06
4.56273e-06
4.47833e-06
4.4854e-06
4.48834e-06
4.49422e-06
4.49721e-06
4.5031e-06
4.50616e-06
4.51206e-06
4.51521e-06
4.5211e-06
4.52434e-06
4.53021e-06
4.53356e-06
4.53941e-06
4.54286e-06
4.5487e-06
4.55224e-06
4.55517e-06
4.55988e-06
4.59867e-06
4.51337e-06
4.52052e-06
4.52349e-06
4.52942e-06
4.53245e-06
4.5384e-06
4.54149e-06
4.54746e-06
4.55064e-06
4.55659e-06
4.55987e-06
4.5658e-06
4.56919e-06
4.57509e-06
4.57858e-06
4.58449e-06
4.58806e-06
4.59103e-06
4.59578e-06
4.62462e-06
4.53867e-06
4.54587e-06
4.54886e-06
4.55484e-06
4.55789e-06
4.56389e-06
4.56701e-06
4.57301e-06
4.57622e-06
4.58221e-06
4.58552e-06
4.59149e-06
4.59491e-06
4.60086e-06
4.60438e-06
4.61033e-06
4.61392e-06
4.61692e-06
4.62171e-06
4.64637e-06
4.55987e-06
4.56712e-06
4.57013e-06
4.57615e-06
4.57921e-06
4.58525e-06
4.58839e-06
4.59443e-06
4.59765e-06
4.60369e-06
4.60702e-06
4.61302e-06
4.61646e-06
4.62245e-06
4.62599e-06
4.63198e-06
4.6356e-06
4.63861e-06
4.64343e-06
4.66713e-06
4.58012e-06
4.58741e-06
4.59043e-06
4.59649e-06
4.59957e-06
4.60565e-06
4.6088e-06
4.61488e-06
4.61812e-06
4.62419e-06
4.62754e-06
4.63358e-06
4.63704e-06
4.64307e-06
4.64663e-06
4.65265e-06
4.6563e-06
4.65932e-06
4.66418e-06
4.68876e-06
4.60121e-06
4.60854e-06
4.61158e-06
4.61768e-06
4.62078e-06
4.62689e-06
4.63006e-06
4.63618e-06
4.63944e-06
4.64555e-06
4.64892e-06
4.655e-06
4.65848e-06
4.66454e-06
4.66812e-06
4.67418e-06
4.67785e-06
4.6809e-06
4.68578e-06
4.7124e-06
4.62426e-06
4.63164e-06
4.6347e-06
4.64083e-06
4.64396e-06
4.65011e-06
4.6533e-06
4.65946e-06
4.66275e-06
4.66889e-06
4.67228e-06
4.67841e-06
4.68191e-06
4.68801e-06
4.69162e-06
4.69772e-06
4.70141e-06
4.70448e-06
4.70939e-06
4.73876e-06
4.64996e-06
4.65739e-06
4.66048e-06
4.66666e-06
4.6698e-06
4.676e-06
4.67922e-06
4.68542e-06
4.68873e-06
4.69492e-06
4.69834e-06
4.70451e-06
4.70804e-06
4.71418e-06
4.71782e-06
4.72396e-06
4.72768e-06
4.73077e-06
4.73572e-06
4.76797e-06
4.67843e-06
4.68593e-06
4.68904e-06
4.69527e-06
4.69844e-06
4.70469e-06
4.70793e-06
4.71419e-06
4.71752e-06
4.72376e-06
4.72721e-06
4.73343e-06
4.73698e-06
4.74318e-06
4.74685e-06
4.75304e-06
4.75679e-06
4.75991e-06
4.7649e-06
4.79906e-06
4.70875e-06
4.71631e-06
4.71945e-06
4.72573e-06
4.72893e-06
4.73523e-06
4.7385e-06
4.74481e-06
4.74817e-06
4.75447e-06
4.75794e-06
4.76421e-06
4.7678e-06
4.77405e-06
4.77775e-06
4.784e-06
4.78778e-06
4.79092e-06
4.79596e-06
4.82933e-06
4.73829e-06
4.7459e-06
4.74906e-06
4.75539e-06
4.75862e-06
4.76497e-06
4.76826e-06
4.77462e-06
4.77801e-06
4.78436e-06
4.78786e-06
4.79418e-06
4.7978e-06
4.80411e-06
4.80783e-06
4.81413e-06
4.81795e-06
4.82112e-06
4.82619e-06
4.85412e-06
4.76428e-06
4.77165e-06
4.77472e-06
4.78088e-06
4.78403e-06
4.79024e-06
4.79348e-06
4.79971e-06
4.80308e-06
4.8093e-06
4.81281e-06
4.81902e-06
4.82268e-06
4.82888e-06
4.83268e-06
4.8389e-06
4.84281e-06
4.84594e-06
4.85105e-06
4.86532e-06
4.86531e-06
4.8653e-06
4.8653e-06
4.86529e-06
4.86529e-06
4.86528e-06
4.86528e-06
4.86528e-06
4.86527e-06
4.86527e-06
4.86527e-06
4.86527e-06
4.86527e-06
4.86527e-06
4.86527e-06
4.86527e-06
4.86527e-06
4.86527e-06
4.86527e-06
)
;

boundaryField
{
    movingWall
    {
        type            zeroGradient;
    }
    fixedWalls
    {
        type            zeroGradient;
    }
    frontAndBack
    {
        type            empty;
    }
}


// ************************************************************************* //
