/*--------------------------------*- C++ -*----------------------------------*\
| =========                 |                                                 |
| \\      /  F ield         | OpenFOAM: The Open Source CFD Toolbox           |
|  \\    /   O peration     | Version:  2506                                  |
|   \\  /    A nd           | Website:  www.openfoam.com                      |
|    \\/     M anipulation  |                                                 |
\*---------------------------------------------------------------------------*/
FoamFile
{
    version     2.0;
    format      ascii;
    arch        "LSB;label=32;scalar=64";
    class       volVectorField;
    location    "7.125";
    object      diffU;
}
// * * * * * * * * * * * * * * * * * * * * * * * * * * * * * * * * * * * * * //

dimensions      [0 1 -1 0 0 0 0];

internalField   nonuniform List<vector> 
400
(
(0 0 0)
(1.53211e-14 -1.98535e-13 0)
(1.15463e-14 -1.55671e-13 0)
(1.12133e-14 -1.65585e-13 0)
(1.12133e-14 -1.63412e-13 0)
(1.09912e-14 -1.63896e-13 0)
(1.09912e-14 -1.63847e-13 0)
(1.09912e-14 -1.63888e-13 0)
(1.07692e-14 -1.63882e-13 0)
(1.05471e-14 -1.63873e-13 0)
(1.08802e-14 -1.63932e-13 0)
(1.06581e-14 -1.63961e-13 0)
(1.02141e-14 -1.63964e-13 0)
(1.02141e-14 -1.64023e-13 0)
(1.02141e-14 -1.64067e-13 0)
(1.02141e-14 -1.64101e-13 0)
(1.04361e-14 -1.6414e-13 0)
(1.07692e-14 -1.64017e-13 0)
(1.05471e-14 -1.63905e-13 0)
(1.04361e-14 -1.63958e-13 0)
(3.30846e-14 -1.59517e-13 0)
(3.55271e-15 -1.63804e-13 0)
(9.76996e-15 -1.63712e-13 0)
(9.76996e-15 -1.63952e-13 0)
(1.02141e-14 -1.64014e-13 0)
(1.04361e-14 -1.64005e-13 0)
(1.04361e-14 -1.64008e-13 0)
(1.06581e-14 -1.63983e-13 0)
(1.02141e-14 -1.64077e-13 0)
(1.04361e-14 -1.64109e-13 0)
(1.08802e-14 -1.63935e-13 0)
(1.06581e-14 -1.63732e-13 0)
(1.07692e-14 -1.6371e-13 0)
(1.05471e-14 -1.63915e-13 0)
(1.05471e-14 -1.64047e-13 0)
(1.02141e-14 -1.64098e-13 0)
(1.02141e-14 -1.64148e-13 0)
(9.99201e-15 -1.64037e-13 0)
(9.99201e-15 -1.63978e-13 0)
(1.04361e-14 -1.64035e-13 0)
(0 -3.04293e-13 0)
(1.44329e-14 -1.33455e-13 0)
(1.07692e-14 -1.70945e-13 0)
(1.08802e-14 -1.62627e-13 0)
(1.11022e-14 -1.64461e-13 0)
(1.11022e-14 -1.63879e-13 0)
(1.08802e-14 -1.63831e-13 0)
(1.07692e-14 -1.63841e-13 0)
(1.06581e-14 -1.64032e-13 0)
(1.06581e-14 -1.64064e-13 0)
(1.04361e-14 -1.63841e-13 0)
(1.02141e-14 -1.63802e-13 0)
(1.02141e-14 -1.63938e-13 0)
(1.07692e-14 -1.64054e-13 0)
(1.08802e-14 -1.6402e-13 0)
(1.07692e-14 -1.63882e-13 0)
(1.04361e-14 -1.63868e-13 0)
(1.04361e-14 -1.63991e-13 0)
(1.04361e-14 -1.64172e-13 0)
(1.04361e-14 -1.64191e-13 0)
(-9.99201e-15 -4.41325e-14 0)
(1.52101e-14 -1.9008e-13 0)
(9.76996e-15 -1.57647e-13 0)
(1.04361e-14 -1.65328e-13 0)
(9.99201e-15 -1.63615e-13 0)
(9.76996e-15 -1.63882e-13 0)
(9.76996e-15 -1.63781e-13 0)
(9.99201e-15 -1.63909e-13 0)
(1.02141e-14 -1.63972e-13 0)
(9.99201e-15 -1.63955e-13 0)
(1.02141e-14 -1.63904e-13 0)
(1.05471e-14 -1.63946e-13 0)
(1.08802e-14 -1.64024e-13 0)
(1.05471e-14 -1.64005e-13 0)
(1.05471e-14 -1.63892e-13 0)
(1.02141e-14 -1.63876e-13 0)
(1.04361e-14 -1.6396e-13 0)
(1.04361e-14 -1.64057e-13 0)
(1.05471e-14 -1.64165e-13 0)
(1.04361e-14 -1.64182e-13 0)
(4.16334e-14 -1.78018e-13 0)
(1.9984e-15 -1.61213e-13 0)
(1.13243e-14 -1.64564e-13 0)
(1.02141e-14 -1.6367e-13 0)
(1.07692e-14 -1.63825e-13 0)
(1.06581e-14 -1.63839e-13 0)
(1.06581e-14 -1.63981e-13 0)
(1.05471e-14 -1.64079e-13 0)
(1.04361e-14 -1.64015e-13 0)
(1.05471e-14 -1.64017e-13 0)
(9.99201e-15 -1.64106e-13 0)
(9.99201e-15 -1.64105e-13 0)
(1.04361e-14 -1.64066e-13 0)
(1.04361e-14 -1.63992e-13 0)
(1.06581e-14 -1.63904e-13 0)
(1.08802e-14 -1.6398e-13 0)
(1.09912e-14 -1.64018e-13 0)
(1.06581e-14 -1.63981e-13 0)
(1.05471e-14 -1.64094e-13 0)
(1.06581e-14 -1.64128e-13 0)
(-9.99201e-15 -2.73837e-13 0)
(1.63203e-14 -1.39795e-13 0)
(1.02141e-14 -1.69603e-13 0)
(1.09912e-14 -1.62645e-13 0)
(1.08802e-14 -1.64111e-13 0)
(1.08802e-14 -1.63789e-13 0)
(1.11022e-14 -1.63832e-13 0)
(1.07692e-14 -1.63762e-13 0)
(1.06581e-14 -1.63731e-13 0)
(1.08802e-14 -1.63803e-13 0)
(1.06581e-14 -1.63977e-13 0)
(1.05471e-14 -1.64129e-13 0)
(1.02141e-14 -1.64204e-13 0)
(1.02141e-14 -1.64146e-13 0)
(1.02141e-14 -1.64024e-13 0)
(1.02141e-14 -1.63989e-13 0)
(9.99201e-15 -1.63963e-13 0)
(1.04361e-14 -1.64028e-13 0)
(1.04361e-14 -1.6407e-13 0)
(1.06581e-14 -1.64046e-13 0)
(1.52101e-14 -2.37464e-15 0)
(9.99201e-15 -1.98909e-13 0)
(1.13243e-14 -1.55671e-13 0)
(1.06581e-14 -1.65713e-13 0)
(1.07692e-14 -1.63526e-13 0)
(1.05471e-14 -1.64012e-13 0)
(1.05471e-14 -1.63921e-13 0)
(1.05471e-14 -1.63884e-13 0)
(1.08802e-14 -1.63859e-13 0)
(1.09912e-14 -1.63866e-13 0)
(1.06581e-14 -1.63863e-13 0)
(1.06581e-14 -1.63763e-13 0)
(1.07692e-14 -1.63748e-13 0)
(1.05471e-14 -1.63897e-13 0)
(1.05471e-14 -1.63962e-13 0)
(1.02141e-14 -1.64062e-13 0)
(1.02141e-14 -1.64221e-13 0)
(1.04361e-14 -1.64265e-13 0)
(1.05471e-14 -1.64083e-13 0)
(1.04361e-14 -1.64025e-13 0)
(2.45359e-14 -2.30087e-13 0)
(5.77316e-15 -1.49462e-13 0)
(9.99201e-15 -1.67365e-13 0)
(1.02141e-14 -1.63205e-13 0)
(9.99201e-15 -1.64079e-13 0)
(1.02141e-14 -1.6379e-13 0)
(1.05471e-14 -1.63855e-13 0)
(9.99201e-15 -1.63861e-13 0)
(9.76996e-15 -1.63933e-13 0)
(1.02141e-14 -1.63913e-13 0)
(1.02141e-14 -1.63939e-13 0)
(9.99201e-15 -1.63956e-13 0)
(1.05471e-14 -1.63976e-13 0)
(1.06581e-14 -1.63988e-13 0)
(1.08802e-14 -1.64014e-13 0)
(1.09912e-14 -1.64069e-13 0)
(1.12133e-14 -1.64086e-13 0)
(1.07692e-14 -1.63987e-13 0)
(1.05471e-14 -1.63969e-13 0)
(1.05471e-14 -1.64046e-13 0)
(-2.88658e-15 -2.3593e-13 0)
(1.45439e-14 -1.48237e-13 0)
(1.06581e-14 -1.67672e-13 0)
(1.02141e-14 -1.63105e-13 0)
(1.02141e-14 -1.64052e-13 0)
(9.99201e-15 -1.63791e-13 0)
(9.99201e-15 -1.63796e-13 0)
(1.02141e-14 -1.63818e-13 0)
(1.02141e-14 -1.64014e-13 0)
(9.99201e-15 -1.64077e-13 0)
(1.05471e-14 -1.64075e-13 0)
(1.04361e-14 -1.64055e-13 0)
(1.05471e-14 -1.63989e-13 0)
(1.02141e-14 -1.63874e-13 0)
(1.02141e-14 -1.64026e-13 0)
(1.02141e-14 -1.6414e-13 0)
(9.99201e-15 -1.64025e-13 0)
(1.02141e-14 -1.63903e-13 0)
(1.04361e-14 -1.63933e-13 0)
(1.04361e-14 -1.64025e-13 0)
(1.38778e-14 -1.31261e-14 0)
(9.10383e-15 -1.96615e-13 0)
(9.99201e-15 -1.5625e-13 0)
(9.99201e-15 -1.6539e-13 0)
(9.54792e-15 -1.63335e-13 0)
(9.99201e-15 -1.6389e-13 0)
(9.76996e-15 -1.63944e-13 0)
(9.99201e-15 -1.64084e-13 0)
(1.02141e-14 -1.64113e-13 0)
(1.02141e-14 -1.64176e-13 0)
(9.99201e-15 -1.64149e-13 0)
(9.99201e-15 -1.64035e-13 0)
(9.99201e-15 -1.63936e-13 0)
(1.02141e-14 -1.63942e-13 0)
(1.06581e-14 -1.64046e-13 0)
(1.04361e-14 -1.64079e-13 0)
(1.02141e-14 -1.64102e-13 0)
(1.05471e-14 -1.64057e-13 0)
(1.04361e-14 -1.64013e-13 0)
(1.04361e-14 -1.64022e-13 0)
(6.43929e-15 -3.0977e-13 0)
(1.11022e-14 -1.32016e-13 0)
(1.02141e-14 -1.7119e-13 0)
(1.11022e-14 -1.62024e-13 0)
(1.08802e-14 -1.6404e-13 0)
(1.11022e-14 -1.63722e-13 0)
(1.11022e-14 -1.63972e-13 0)
(1.08802e-14 -1.64179e-13 0)
(1.07692e-14 -1.64203e-13 0)
(1.09912e-14 -1.6412e-13 0)
(1.08802e-14 -1.64046e-13 0)
(1.07692e-14 -1.64037e-13 0)
(1.07692e-14 -1.64052e-13 0)
(1.09912e-14 -1.64069e-13 0)
(1.04361e-14 -1.63981e-13 0)
(1.04361e-14 -1.63965e-13 0)
(1.02141e-14 -1.64089e-13 0)
(1.02141e-14 -1.64129e-13 0)
(1.04361e-14 -1.64085e-13 0)
(1.05471e-14 -1.64068e-13 0)
(1.24345e-14 -8.34235e-14 0)
(1.04361e-14 -1.82403e-13 0)
(1.06581e-14 -1.59828e-13 0)
(9.54792e-15 -1.64975e-13 0)
(1.04361e-14 -1.63773e-13 0)
(1.05471e-14 -1.64092e-13 0)
(1.09912e-14 -1.64017e-13 0)
(1.11022e-14 -1.64082e-13 0)
(1.11022e-14 -1.64052e-13 0)
(1.07692e-14 -1.63971e-13 0)
(1.06581e-14 -1.63914e-13 0)
(1.06581e-14 -1.63889e-13 0)
(1.08802e-14 -1.63853e-13 0)
(1.06581e-14 -1.63854e-13 0)
(1.07692e-14 -1.63894e-13 0)
(1.07692e-14 -1.63973e-13 0)
(1.08802e-14 -1.64018e-13 0)
(1.06581e-14 -1.64044e-13 0)
(1.06581e-14 -1.64e-13 0)
(1.05471e-14 -1.6404e-13 0)
(7.77156e-15 -1.56378e-13 0)
(9.32587e-15 -1.65587e-13 0)
(9.10383e-15 -1.63761e-13 0)
(1.02141e-14 -1.64237e-13 0)
(9.76996e-15 -1.64233e-13 0)
(9.99201e-15 -1.64282e-13 0)
(9.99201e-15 -1.64232e-13 0)
(9.99201e-15 -1.64107e-13 0)
(9.99201e-15 -1.63986e-13 0)
(9.99201e-15 -1.64006e-13 0)
(9.76996e-15 -1.64081e-13 0)
(1.02141e-14 -1.63985e-13 0)
(9.99201e-15 -1.63951e-13 0)
(1.02141e-14 -1.63973e-13 0)
(1.06581e-14 -1.63965e-13 0)
(1.04361e-14 -1.63898e-13 0)
(1.02141e-14 -1.63889e-13 0)
(1.02141e-14 -1.63941e-13 0)
(1.02141e-14 -1.63984e-13 0)
(1.04361e-14 -1.64024e-13 0)
(1.22125e-14 -2.50472e-13 0)
(1.14353e-14 -1.44887e-13 0)
(1.14353e-14 -1.68329e-13 0)
(1.06581e-14 -1.63089e-13 0)
(1.08802e-14 -1.6446e-13 0)
(1.05471e-14 -1.64216e-13 0)
(1.06581e-14 -1.64219e-13 0)
(1.07692e-14 -1.64145e-13 0)
(1.05471e-14 -1.64056e-13 0)
(1.05471e-14 -1.63902e-13 0)
(1.04361e-14 -1.63995e-13 0)
(1.02141e-14 -1.64042e-13 0)
(1.04361e-14 -1.64066e-13 0)
(1.05471e-14 -1.64083e-13 0)
(1.04361e-14 -1.64017e-13 0)
(1.05471e-14 -1.63929e-13 0)
(1.06581e-14 -1.63892e-13 0)
(1.07692e-14 -1.63867e-13 0)
(1.04361e-14 -1.63967e-13 0)
(1.04361e-14 -1.64074e-13 0)
(3.33067e-15 -1.9429e-14 0)
(1.17684e-14 -1.95557e-13 0)
(9.76996e-15 -1.56783e-13 0)
(1.08802e-14 -1.65827e-13 0)
(1.06581e-14 -1.63834e-13 0)
(1.02141e-14 -1.64253e-13 0)
(1.02141e-14 -1.64124e-13 0)
(1.02141e-14 -1.63956e-13 0)
(1.02141e-14 -1.63824e-13 0)
(1.04361e-14 -1.63827e-13 0)
(1.04361e-14 -1.63956e-13 0)
(1.05471e-14 -1.64115e-13 0)
(1.04361e-14 -1.64116e-13 0)
(1.04361e-14 -1.64026e-13 0)
(1.04361e-14 -1.6396e-13 0)
(1.04361e-14 -1.63934e-13 0)
(9.99201e-15 -1.63918e-13 0)
(9.99201e-15 -1.63818e-13 0)
(1.04361e-14 -1.639e-13 0)
(1.05471e-14 -1.6406e-13 0)
(3.10862e-14 -2.68756e-13 0)
(4.44089e-15 -1.41404e-13 0)
(1.12133e-14 -1.69455e-13 0)
(9.99201e-15 -1.62916e-13 0)
(9.99201e-15 -1.64288e-13 0)
(9.99201e-15 -1.64039e-13 0)
(9.99201e-15 -1.64205e-13 0)
(1.02141e-14 -1.64135e-13 0)
(1.02141e-14 -1.64099e-13 0)
(1.05471e-14 -1.6417e-13 0)
(1.07692e-14 -1.64171e-13 0)
(1.05471e-14 -1.6411e-13 0)
(1.05471e-14 -1.64025e-13 0)
(1.05471e-14 -1.63972e-13 0)
(1.04361e-14 -1.63944e-13 0)
(1.04361e-14 -1.63891e-13 0)
(1.05471e-14 -1.63867e-13 0)
(1.04361e-14 -1.63873e-13 0)
(1.04361e-14 -1.63964e-13 0)
(1.05471e-14 -1.64026e-13 0)
(-1.13243e-14 -1.83077e-13 0)
(1.75415e-14 -1.59882e-13 0)
(1.07692e-14 -1.64914e-13 0)
(1.12133e-14 -1.6371e-13 0)
(1.09912e-14 -1.6405e-13 0)
(1.09912e-14 -1.64113e-13 0)
(1.08802e-14 -1.64217e-13 0)
(1.08802e-14 -1.64199e-13 0)
(1.06581e-14 -1.64179e-13 0)
(1.05471e-14 -1.64045e-13 0)
(1.05471e-14 -1.63887e-13 0)
(9.99201e-15 -1.63836e-13 0)
(9.76996e-15 -1.63902e-13 0)
(9.99201e-15 -1.64008e-13 0)
(9.99201e-15 -1.63982e-13 0)
(9.99201e-15 -1.64009e-13 0)
(9.99201e-15 -1.63947e-13 0)
(1.02141e-14 -1.64001e-13 0)
(1.05471e-14 -1.63979e-13 0)
(1.05471e-14 -1.63978e-13 0)
(5.55112e-15 -4.44451e-14 0)
(1.05471e-14 -1.89787e-13 0)
(9.32587e-15 -1.57748e-13 0)
(9.99201e-15 -1.65251e-13 0)
(9.76996e-15 -1.63712e-13 0)
(1.04361e-14 -1.64048e-13 0)
(9.99201e-15 -1.63979e-13 0)
(9.76996e-15 -1.64033e-13 0)
(9.54792e-15 -1.64107e-13 0)
(9.76996e-15 -1.64143e-13 0)
(9.99201e-15 -1.63979e-13 0)
(1.02141e-14 -1.63852e-13 0)
(1.05471e-14 -1.63958e-13 0)
(1.04361e-14 -1.64023e-13 0)
(1.04361e-14 -1.63933e-13 0)
(1.02141e-14 -1.6395e-13 0)
(1.02141e-14 -1.64046e-13 0)
(9.99201e-15 -1.64153e-13 0)
(1.02141e-14 -1.64113e-13 0)
(1.04361e-14 -1.64008e-13 0)
(4.24105e-14 -2.17108e-13 0)
(2.22045e-15 -1.52871e-13 0)
(1.14353e-14 -1.66739e-13 0)
(1.04361e-14 -1.6351e-13 0)
(1.06581e-14 -1.64159e-13 0)
(1.05471e-14 -1.63915e-13 0)
(1.05471e-14 -1.63904e-13 0)
(1.04361e-14 -1.64091e-13 0)
(1.05471e-14 -1.64142e-13 0)
(1.02141e-14 -1.64204e-13 0)
(1.02141e-14 -1.64204e-13 0)
(1.02141e-14 -1.64162e-13 0)
(1.04361e-14 -1.64073e-13 0)
(1.04361e-14 -1.63977e-13 0)
(1.02141e-14 -1.64002e-13 0)
(1.05471e-14 -1.63997e-13 0)
(1.05471e-14 -1.64065e-13 0)
(1.04361e-14 -1.6411e-13 0)
(1.06581e-14 -1.64058e-13 0)
(1.06581e-14 -1.63995e-13 0)
(-4.66294e-15 -2.39092e-13 0)
(1.4877e-14 -1.47923e-13 0)
(1.09912e-14 -1.67987e-13 0)
(1.11022e-14 -1.63252e-13 0)
(1.11022e-14 -1.64204e-13 0)
(1.08802e-14 -1.63949e-13 0)
(1.09912e-14 -1.6398e-13 0)
(1.11022e-14 -1.64047e-13 0)
(1.09912e-14 -1.63995e-13 0)
(1.08802e-14 -1.63958e-13 0)
(1.11022e-14 -1.64026e-13 0)
(1.08802e-14 -1.64127e-13 0)
(1.06581e-14 -1.64048e-13 0)
(1.05471e-14 -1.63963e-13 0)
(1.06581e-14 -1.64056e-13 0)
(1.06581e-14 -1.64112e-13 0)
(1.05471e-14 -1.64101e-13 0)
(1.04361e-14 -1.64055e-13 0)
(1.02141e-14 -1.63955e-13 0)
(1.05471e-14 -1.63975e-13 0)
)
;

boundaryField
{
    movingWall
    {
        type            calculated;
        value           uniform (1.04361e-14 -1.64013e-13 0);
    }
    fixedWalls
    {
        type            calculated;
        value           uniform (1.04361e-14 -1.64013e-13 0);
    }
    frontAndBack
    {
        type            empty;
    }
}


// ************************************************************************* //
