/*--------------------------------*- C++ -*----------------------------------*\
| =========                 |                                                 |
| \\      /  F ield         | OpenFOAM: The Open Source CFD Toolbox           |
|  \\    /   O peration     | Version:  2506                                  |
|   \\  /    A nd           | Website:  www.openfoam.com                      |
|    \\/     M anipulation  |                                                 |
\*---------------------------------------------------------------------------*/
FoamFile
{
    version     2.0;
    format      ascii;
    arch        "LSB;label=32;scalar=64";
    class       volScalarField;
    location    "7.125";
    object      divU;
}
// * * * * * * * * * * * * * * * * * * * * * * * * * * * * * * * * * * * * * //

dimensions      [0 0 -1 0 0 0 0];

internalField   nonuniform List<scalar> 
400
(
1.62901e-11
-2.2659e-12
4.57608e-13
-1.78265e-13
3.27766e-14
-1.46868e-14
1.69884e-14
-1.17711e-14
-2.04764e-14
4.34519e-15
1.57818e-14
-2.09836e-14
-1.91155e-14
8.77831e-15
-8.80467e-15
-1.73983e-14
5.50343e-14
2.4207e-14
-4.00096e-14
0
-2.88398e-11
4.18783e-12
-9.07144e-13
3.61477e-13
-1.79177e-14
1.41179e-14
1.86846e-14
-3.41768e-14
-8.37745e-15
3.94036e-14
-2.21785e-15
2.20053e-14
1.05966e-14
-2.14227e-14
-3.12366e-14
-2.25783e-14
8.87552e-16
-2.76736e-16
-1.24761e-14
2.71051e-14
1.09233e-11
-1.58395e-12
2.14303e-13
-7.42444e-14
7.62223e-14
-2.77831e-14
-1.28787e-14
-2.6713e-14
2.09811e-15
6.00388e-16
-2.61778e-14
-8.06764e-14
3.34104e-14
5.0824e-14
3.84376e-14
-2.75093e-14
-7.41095e-15
-2.23925e-15
-3.11253e-14
0
1.10589e-11
-8.08951e-13
1.20614e-13
-7.01591e-14
-2.27734e-14
3.29309e-15
-2.78864e-14
3.08708e-14
3.08552e-14
-2.1767e-14
5.57555e-14
2.45542e-14
-6.52896e-15
-2.434e-14
-4.16591e-15
-6.44557e-14
3.17754e-14
2.57791e-14
-2.33494e-14
0
-2.07354e-11
1.99695e-12
-3.70273e-13
2.25227e-13
8.94027e-15
1.25896e-14
-5.87787e-15
-8.63713e-15
2.7909e-14
-6.07958e-14
-3.2874e-14
6.24148e-15
2.97054e-14
1.58299e-14
9.75902e-15
5.59988e-15
-2.26761e-14
1.58575e-15
-1.39228e-14
-2.71051e-14
1.61004e-11
-1.74558e-12
3.83442e-13
-1.41764e-13
1.1655e-14
2.2426e-14
5.00651e-17
-4.33634e-14
1.64863e-14
8.49898e-15
1.85422e-14
-1.37491e-14
-1.9714e-14
-1.76316e-15
3.95888e-15
-2.59113e-15
-1.58374e-14
2.74809e-14
4.13901e-14
0
4.8247e-12
-1.35702e-12
2.82032e-13
-1.1641e-13
1.49039e-14
-3.18689e-14
-2.2275e-15
2.79817e-14
2.3347e-14
-2.9579e-14
-3.18307e-14
3.06603e-14
3.02062e-14
-1.31234e-14
-2.21997e-14
-6.47746e-14
5.31429e-14
3.15927e-14
-2.98009e-14
0
-2.24159e-11
3.57472e-12
-7.28294e-13
2.79921e-13
-9.19116e-14
9.86408e-14
-4.38629e-14
-1.9655e-14
-1.92947e-14
3.48913e-15
-5.30201e-14
1.44857e-15
8.7392e-14
-1.08581e-14
2.55465e-14
3.58252e-14
-8.5584e-15
-1.35771e-14
-1.47672e-14
-2.71051e-14
2.07625e-11
-3.36316e-12
6.81369e-13
-2.63841e-13
3.66591e-14
-1.98132e-14
1.49635e-15
1.2321e-14
-3.72583e-14
4.29281e-15
3.43326e-14
2.06715e-14
-1.71202e-14
-6.04607e-14
-4.77789e-15
7.65106e-15
-3.72826e-14
8.7768e-14
7.97187e-15
0
-7.15573e-12
1.21334e-12
-2.39594e-13
6.11634e-14
1.0756e-14
6.84117e-14
-7.0354e-14
5.75542e-14
-2.90963e-14
2.25973e-17
-1.7052e-14
-4.63368e-15
3.07259e-14
2.85266e-14
2.68332e-14
-5.61972e-14
3.76515e-14
-1.61114e-14
-7.22809e-15
0
-7.37257e-12
1.82134e-12
-3.53427e-13
1.02667e-13
-3.3052e-14
-5.96589e-15
-2.35075e-14
-2.35535e-14
4.08453e-15
2.05277e-14
3.35382e-14
-1.7148e-14
3.91052e-14
-1.69009e-14
-3.92454e-14
8.70083e-15
-3.52205e-14
6.65752e-14
-5.93367e-15
0
1.55041e-11
-3.51439e-12
6.60469e-13
-2.5417e-13
8.32402e-14
-3.48375e-14
5.8943e-14
1.0708e-14
-2.84032e-14
-2.22342e-14
2.96504e-15
1.5151e-14
2.21333e-14
1.97429e-14
-1.04832e-14
1.54003e-14
1.1805e-14
3.11678e-14
-2.29559e-14
-2.71051e-14
-1.70491e-11
3.84222e-12
-7.58875e-13
2.86771e-13
-6.67599e-14
-2.01931e-14
-1.54385e-14
4.39496e-15
-1.70389e-15
1.17495e-14
-5.12048e-15
-2.72928e-14
7.65905e-16
2.39953e-14
4.32842e-15
-8.87021e-14
2.44063e-14
2.1755e-14
6.16524e-14
0
1.39591e-11
-3.08502e-12
6.43699e-13
-2.51755e-13
2.73513e-14
-1.73613e-14
4.95018e-14
1.94922e-14
-1.26428e-14
2.96112e-14
-7.39809e-14
4.09608e-14
1.13749e-14
-8.37697e-15
4.76669e-15
1.61945e-14
-5.60161e-15
-2.01784e-14
-1.1297e-14
0
-2.38524e-12
9.76627e-13
-2.27832e-13
1.17895e-13
-3.67754e-14
-2.67051e-14
-3.34019e-15
-6.62049e-15
-1.69216e-14
2.99578e-14
-1.02701e-14
-2.00553e-14
1.55093e-14
2.70954e-15
1.2105e-14
-6.13045e-14
-3.0209e-14
3.34488e-14
7.03237e-14
-2.71051e-14
-1.49078e-11
1.56253e-12
-2.27841e-13
8.57417e-14
-3.13305e-14
1.44119e-14
-1.25761e-14
-3.81309e-15
2.89849e-14
3.52152e-14
-3.35837e-15
7.8431e-15
9.77267e-15
4.53838e-15
-1.71442e-14
1.25329e-14
-3.30981e-14
-1.19704e-14
8.23776e-15
-2.71051e-14
2.09793e-11
-2.6523e-12
5.36325e-13
-2.02004e-13
2.62876e-14
-4.07162e-14
1.00187e-14
-2.06943e-14
-2.60781e-14
1.07401e-14
-6.53846e-14
6.58376e-15
1.64612e-14
-5.34382e-16
1.09929e-14
6.63886e-15
-2.39448e-14
4.13454e-14
2.04613e-14
-2.71051e-14
-3.90313e-12
1.1117e-12
-2.96701e-13
1.16101e-13
-1.17151e-14
6.04058e-14
-4.00583e-14
1.723e-14
-4.95248e-14
4.90421e-14
1.13351e-14
5.53724e-14
-2.77111e-14
2.56022e-15
8.96952e-15
-4.64651e-14
-8.64426e-15
-5.08933e-14
6.67354e-14
0
-1.70762e-11
1.09677e-12
-2.09387e-13
1.26291e-13
-6.0963e-14
1.60861e-14
-4.01258e-14
1.58462e-14
-1.11813e-14
-4.08058e-14
6.56327e-15
-2.63158e-14
4.4593e-14
8.55179e-15
-3.33792e-15
1.86736e-14
-4.1279e-14
4.0193e-14
5.54026e-14
-5.42101e-14
1.17636e-11
-1.16552e-12
2.98156e-13
-1.0842e-13
0
-5.42101e-14
2.71051e-14
-2.71051e-14
-2.71051e-14
5.42101e-14
2.71051e-14
-2.71051e-14
-2.71051e-14
2.71051e-14
0
-2.71051e-14
0
-2.71051e-14
5.42101e-14
0
)
;

boundaryField
{
    movingWall
    {
        type            extrapolatedCalculated;
        value           nonuniform List<scalar> 
20
(
1.17636e-11
-1.16552e-12
2.98156e-13
-1.0842e-13
0
-5.42101e-14
2.71051e-14
-2.71051e-14
-2.71051e-14
5.42101e-14
2.71051e-14
-2.71051e-14
-2.71051e-14
2.71051e-14
0
-2.71051e-14
0
-2.71051e-14
5.42101e-14
0
)
;
    }
    fixedWalls
    {
        type            extrapolatedCalculated;
        value           nonuniform List<scalar> 
60
(
1.62901e-11
-2.88398e-11
1.09233e-11
1.10589e-11
-2.07354e-11
1.61004e-11
4.8247e-12
-2.24159e-11
2.07625e-11
-7.15573e-12
-7.37257e-12
1.55041e-11
-1.70491e-11
1.39591e-11
-2.38524e-12
-1.49078e-11
2.09793e-11
-3.90313e-12
-1.70762e-11
1.17636e-11
0
2.71051e-14
0
0
-2.71051e-14
0
0
-2.71051e-14
0
0
0
-2.71051e-14
0
0
-2.71051e-14
-2.71051e-14
-2.71051e-14
0
-5.42101e-14
0
1.62901e-11
-2.2659e-12
4.57608e-13
-1.78265e-13
3.27766e-14
-1.46868e-14
1.69884e-14
-1.17711e-14
-2.04764e-14
4.34519e-15
1.57818e-14
-2.09836e-14
-1.91155e-14
8.77831e-15
-8.80467e-15
-1.73983e-14
5.50343e-14
2.4207e-14
-4.00096e-14
0
)
;
    }
    frontAndBack
    {
        type            empty;
    }
}


// ************************************************************************* //
