/*--------------------------------*- C++ -*----------------------------------*\
| =========                 |                                                 |
| \\      /  F ield         | OpenFOAM: The Open Source CFD Toolbox           |
|  \\    /   O peration     | Version:  2506                                  |
|   \\  /    A nd           | Website:  www.openfoam.com                      |
|    \\/     M anipulation  |                                                 |
\*---------------------------------------------------------------------------*/
FoamFile
{
    version     2.0;
    format      ascii;
    arch        "LSB;label=32;scalar=64";
    class       volScalarField;
    location    "7.125";
    object      enstrophyField;
}
// * * * * * * * * * * * * * * * * * * * * * * * * * * * * * * * * * * * * * //

dimensions      [0 0 -2 0 0 0 0];

internalField   nonuniform List<scalar> 
400
(
6.87882e-23
1.17816e-22
5.25147e-24
3.20915e-25
3.83152e-27
4.77988e-27
1.42817e-27
3.59124e-27
3.26029e-28
5.15681e-28
4.06018e-27
1.64957e-27
1.92544e-29
5.242e-29
3.05956e-29
1.09963e-27
3.53123e-29
2.75462e-28
1.80543e-27
1.31294e-28
1.10631e-25
4.83846e-26
4.38471e-27
4.5799e-28
1.3914e-29
2.24964e-31
2.31176e-30
2.03609e-28
1.05802e-28
1.00294e-28
2.0985e-27
2.94535e-27
1.66398e-28
3.86059e-27
2.63278e-27
4.18408e-27
1.85826e-29
2.53613e-27
2.82903e-32
7.39406e-31
2.20153e-23
7.37163e-23
4.25476e-24
1.76555e-25
4.81561e-27
6.87338e-27
1.68057e-27
5.80503e-28
2.48229e-28
1.06753e-27
3.23591e-27
4.73007e-29
1.36714e-27
3.33999e-29
1.47894e-28
1.15241e-28
5.94026e-29
3.57718e-27
2.75587e-27
5.69937e-28
1.35567e-23
5.1052e-23
2.86546e-24
1.47195e-25
1.47413e-26
7.06798e-28
1.3269e-27
6.16476e-28
1.22982e-27
1.8631e-27
1.51889e-27
8.90818e-28
5.4614e-28
8.12264e-28
8.30557e-29
2.32569e-29
2.61006e-27
1.13056e-27
7.84403e-28
1.26583e-29
6.279e-25
7.99009e-25
3.72057e-26
1.09623e-27
4.82682e-27
7.69122e-27
1.27142e-26
6.26049e-27
2.82207e-27
6.89812e-27
3.86747e-29
7.70788e-30
2.1432e-27
9.40599e-28
1.53547e-27
6.55367e-29
1.46151e-27
2.86795e-29
7.7957e-29
2.7712e-29
1.77523e-23
4.61775e-23
2.61057e-24
1.22522e-25
6.54186e-27
3.89001e-28
3.67358e-30
5.16004e-29
4.88009e-28
1.33882e-27
9.94168e-27
8.59127e-27
1.398e-30
1.61928e-28
1.22759e-28
3.82234e-27
2.99896e-27
1.33283e-28
1.57801e-30
6.5438e-28
4.26127e-23
1.02241e-22
5.50986e-24
2.47932e-25
3.16183e-26
1.08229e-28
2.24619e-27
6.57777e-27
6.07299e-27
1.44732e-27
2.08336e-27
2.15963e-27
2.28874e-27
2.86058e-27
2.49975e-27
9.02297e-27
1.21359e-26
8.16666e-28
4.88746e-30
6.2589e-28
5.56568e-24
1.70442e-23
8.01171e-25
7.32825e-26
9.23244e-30
2.93196e-27
2.7484e-27
1.86188e-28
2.41251e-28
5.817e-27
9.29185e-30
1.27644e-27
2.84969e-28
1.26693e-27
1.81563e-28
2.56519e-29
3.37534e-29
7.52173e-28
2.23794e-28
3.94722e-28
1.03837e-23
2.0953e-23
1.18746e-24
7.56876e-26
8.59355e-28
1.39327e-27
2.97782e-28
1.19751e-27
1.40619e-27
5.5e-28
1.59502e-27
3.67309e-29
4.93474e-27
1.27247e-27
1.36453e-31
5.89514e-27
1.26758e-26
6.59587e-28
7.44533e-29
2.07728e-28
5.94797e-23
9.7441e-23
5.13226e-24
3.33695e-25
7.54663e-27
1.43254e-26
5.06926e-27
2.5298e-27
4.09707e-27
6.28134e-27
8.04075e-28
5.41821e-28
1.01035e-27
7.1306e-27
8.3358e-28
1.78638e-27
3.09877e-28
3.99086e-29
6.11177e-30
5.04114e-31
6.2871e-23
9.45259e-23
4.74958e-24
2.75303e-25
3.87078e-26
1.12195e-27
1.642e-26
8.65362e-27
1.16766e-27
6.49529e-29
1.05201e-27
1.50309e-27
3.57164e-27
2.52569e-29
1.40915e-28
2.10823e-27
4.76774e-27
7.85857e-32
2.2167e-28
1.02463e-28
1.85094e-23
2.81617e-23
1.66381e-24
3.35466e-26
1.93471e-26
6.17431e-27
5.98638e-27
3.02906e-27
2.13214e-27
4.51833e-27
6.79944e-27
1.82382e-27
3.59256e-27
1.25337e-27
6.98636e-29
7.6335e-29
2.5249e-29
1.59366e-30
3.76689e-28
1.11271e-30
1.83653e-25
3.35928e-25
5.82045e-27
1.6686e-26
1.00401e-29
5.38597e-33
9.92157e-28
1.3344e-27
4.18537e-27
1.00026e-27
4.26064e-28
2.25744e-27
1.53192e-27
9.36698e-31
5.97994e-28
6.00109e-28
2.61604e-28
6.67814e-28
3.47973e-29
3.22607e-28
1.9673e-23
3.198e-23
1.85978e-24
5.53427e-26
2.44576e-26
4.52933e-28
2.5543e-29
1.32591e-28
4.47817e-28
2.83118e-27
4.54472e-27
1.87924e-27
1.69793e-27
2.45839e-28
9.01207e-28
7.86108e-29
1.9645e-29
1.91731e-28
2.15176e-28
1.27046e-30
4.42417e-23
8.56067e-23
4.58185e-24
2.11826e-25
3.53317e-26
1.36493e-27
6.16286e-27
3.54494e-27
2.25464e-27
9.67515e-29
3.44842e-27
9.27646e-28
1.65052e-28
9.10392e-28
4.25195e-29
4.89939e-28
2.16344e-27
1.57011e-27
2.92695e-28
5.64448e-28
2.29635e-23
4.40672e-23
2.55287e-24
1.0694e-25
1.87376e-26
2.66617e-27
4.13473e-27
2.49767e-27
1.66337e-27
5.90445e-28
1.75772e-29
4.60392e-27
4.52616e-27
1.94347e-27
1.94e-27
1.91631e-27
1.74679e-30
2.04321e-27
9.01632e-28
6.17328e-30
5.84888e-25
7.11436e-25
1.86211e-26
3.7328e-27
8.80468e-29
2.51007e-27
3.70104e-29
4.78134e-28
2.42216e-27
6.09861e-27
8.36301e-27
3.2752e-28
1.46774e-28
3.1578e-29
3.6094e-33
4.66898e-28
3.87471e-28
1.3031e-27
4.32205e-28
2.30839e-29
8.05015e-24
4.81412e-23
2.81373e-24
1.19082e-25
1.52352e-26
3.77549e-28
1.55295e-27
2.34646e-27
1.28695e-28
7.99517e-28
1.58203e-27
3.14081e-28
2.54185e-27
1.33806e-27
2.63408e-29
4.28746e-27
5.15635e-27
2.20765e-29
1.05067e-28
4.52333e-29
5.00989e-24
1.08456e-23
7.52187e-25
1.11886e-26
1.54955e-26
4.1234e-28
7.93943e-27
1.26861e-26
1.07842e-26
6.57269e-27
8.61128e-27
2.32515e-27
3.7128e-29
2.00165e-28
1.58392e-27
1.83243e-27
7.37358e-28
1.43117e-27
6.62682e-29
4.05607e-30
8.89779e-24
2.24708e-23
9.38795e-25
9.35345e-26
6.75987e-29
2.93833e-27
9.88181e-28
1.38895e-27
1.99109e-27
2.87464e-28
6.95814e-28
3.10198e-28
9.45465e-28
3.45515e-28
1.11151e-28
1.23515e-27
5.38454e-28
1.07416e-28
3.22127e-29
1.5387e-28
)
;

boundaryField
{
    movingWall
    {
        type            calculated;
        value           nonuniform List<scalar> 
20
(
7.12652e-23
3.94875e-23
8.59147e-25
2.07857e-25
1.93584e-26
2.0017e-26
2.25337e-26
3.5099e-26
2.66664e-26
1.52266e-26
3.11371e-26
1.53893e-26
5.53327e-27
9.50101e-28
2.7312e-27
3.55408e-27
1.25601e-27
1.07416e-28
3.26362e-27
6.07135e-28
)
;
    }
    fixedWalls
    {
        type            calculated;
        value           nonuniform List<scalar> 
60
(
2.07273e-21
1.61693e-24
1.34035e-21
9.5825e-22
1.56928e-23
8.53981e-22
1.8735e-21
3.02919e-22
3.83924e-22
1.76614e-21
1.69015e-21
5.15208e-22
4.66336e-24
5.82195e-22
1.56442e-21
8.18536e-22
1.27551e-23
9.01434e-22
2.04185e-22
4.01894e-22
2.37701e-28
3.98129e-29
2.54584e-27
8.25486e-28
1.79513e-28
8.11608e-28
5.12951e-28
9.35598e-29
5.17559e-28
7.78735e-30
1.14635e-29
6.1326e-29
5.04918e-28
3.03969e-28
3.30401e-29
1.48374e-29
9.42599e-29
1.95622e-30
2.38227e-29
7.10469e-29
1.46606e-22
1.53495e-22
4.06394e-24
5.88504e-25
1.00832e-26
3.5274e-26
2.44822e-26
2.54204e-26
8.6668e-27
1.2211e-27
1.73787e-26
4.23622e-27
3.4124e-27
3.08731e-27
3.28012e-27
3.32146e-27
3.53123e-29
6.02308e-27
7.42227e-28
1.31294e-28
)
;
    }
    frontAndBack
    {
        type            empty;
    }
}


// ************************************************************************* //
