/*--------------------------------*- C++ -*----------------------------------*\
| =========                 |                                                 |
| \\      /  F ield         | OpenFOAM: The Open Source CFD Toolbox           |
|  \\    /   O peration     | Version:  2506                                  |
|   \\  /    A nd           | Website:  www.openfoam.com                      |
|    \\/     M anipulation  |                                                 |
\*---------------------------------------------------------------------------*/
FoamFile
{
    version     2.0;
    format      ascii;
    arch        "LSB;label=32;scalar=64";
    class       volScalarField;
    location    "7.125";
    object      epsilonzeroGrad;
}
// * * * * * * * * * * * * * * * * * * * * * * * * * * * * * * * * * * * * * //

dimensions      [0 2 -3 0 0 0 0];

internalField   nonuniform List<scalar> 
400
(
2.08761e-06
2.08761e-06
2.08761e-06
2.0876e-06
2.0876e-06
2.0876e-06
2.0876e-06
2.0876e-06
2.0876e-06
2.0876e-06
2.0876e-06
2.0876e-06
2.0876e-06
2.0876e-06
2.0876e-06
2.0876e-06
2.0876e-06
2.0876e-06
2.0876e-06
2.0876e-06
2.1819e-06
2.15095e-06
2.15356e-06
2.15462e-06
2.15678e-06
2.15789e-06
2.16004e-06
2.16119e-06
2.16334e-06
2.16452e-06
2.16668e-06
2.1679e-06
2.17006e-06
2.17131e-06
2.17347e-06
2.17476e-06
2.17693e-06
2.17824e-06
2.17933e-06
2.18109e-06
2.32629e-06
2.29204e-06
2.29497e-06
2.29617e-06
2.29858e-06
2.29981e-06
2.30222e-06
2.30349e-06
2.30589e-06
2.30719e-06
2.30959e-06
2.31092e-06
2.31331e-06
2.31467e-06
2.31707e-06
2.31845e-06
2.32085e-06
2.32226e-06
2.32346e-06
2.32537e-06
2.47112e-06
2.43398e-06
2.43716e-06
2.43845e-06
2.44107e-06
2.44241e-06
2.44502e-06
2.44639e-06
2.44899e-06
2.4504e-06
2.453e-06
2.45444e-06
2.45703e-06
2.45851e-06
2.4611e-06
2.46261e-06
2.4652e-06
2.46673e-06
2.46804e-06
2.47011e-06
2.58666e-06
2.54714e-06
2.55052e-06
2.5519e-06
2.55468e-06
2.5561e-06
2.55887e-06
2.56033e-06
2.5631e-06
2.5646e-06
2.56736e-06
2.56889e-06
2.57165e-06
2.57322e-06
2.57598e-06
2.57758e-06
2.58034e-06
2.58197e-06
2.58336e-06
2.58556e-06
2.66656e-06
2.62537e-06
2.62889e-06
2.63032e-06
2.63322e-06
2.6347e-06
2.6376e-06
2.63911e-06
2.642e-06
2.64356e-06
2.64644e-06
2.64804e-06
2.65091e-06
2.65255e-06
2.65542e-06
2.65709e-06
2.65997e-06
2.66166e-06
2.66311e-06
2.66541e-06
2.7174e-06
2.67514e-06
2.67875e-06
2.68022e-06
2.68319e-06
2.68471e-06
2.68768e-06
2.68923e-06
2.69219e-06
2.69379e-06
2.69675e-06
2.69839e-06
2.70134e-06
2.70302e-06
2.70596e-06
2.70768e-06
2.71063e-06
2.71237e-06
2.71385e-06
2.71621e-06
2.74886e-06
2.70593e-06
2.70959e-06
2.71109e-06
2.7141e-06
2.71565e-06
2.71866e-06
2.72024e-06
2.72325e-06
2.72487e-06
2.72787e-06
2.72954e-06
2.73253e-06
2.73424e-06
2.73723e-06
2.73898e-06
2.74197e-06
2.74374e-06
2.74525e-06
2.74764e-06
2.76902e-06
2.72566e-06
2.72936e-06
2.73086e-06
2.73391e-06
2.73547e-06
2.73851e-06
2.74011e-06
2.74315e-06
2.74479e-06
2.74782e-06
2.7495e-06
2.75252e-06
2.75425e-06
2.75727e-06
2.75903e-06
2.76206e-06
2.76385e-06
2.76537e-06
2.76778e-06
2.7833e-06
2.73963e-06
2.74336e-06
2.74488e-06
2.74795e-06
2.74951e-06
2.75258e-06
2.75419e-06
2.75725e-06
2.7589e-06
2.76195e-06
2.76364e-06
2.76669e-06
2.76842e-06
2.77147e-06
2.77324e-06
2.77629e-06
2.77809e-06
2.77962e-06
2.78205e-06
2.79496e-06
2.75104e-06
2.75479e-06
2.75632e-06
2.7594e-06
2.76098e-06
2.76406e-06
2.76568e-06
2.76875e-06
2.77042e-06
2.77348e-06
2.77519e-06
2.77825e-06
2.78e-06
2.78306e-06
2.78484e-06
2.7879e-06
2.78971e-06
2.79125e-06
2.7937e-06
2.80584e-06
2.7617e-06
2.76547e-06
2.767e-06
2.7701e-06
2.77169e-06
2.77479e-06
2.77641e-06
2.7795e-06
2.78117e-06
2.78426e-06
2.78597e-06
2.78905e-06
2.7908e-06
2.79388e-06
2.79567e-06
2.79875e-06
2.80057e-06
2.80212e-06
2.80458e-06
2.81702e-06
2.77264e-06
2.77643e-06
2.77797e-06
2.78109e-06
2.78268e-06
2.7858e-06
2.78743e-06
2.79054e-06
2.79222e-06
2.79532e-06
2.79704e-06
2.80013e-06
2.8019e-06
2.80499e-06
2.80679e-06
2.80989e-06
2.81172e-06
2.81328e-06
2.81575e-06
2.82911e-06
2.78448e-06
2.78829e-06
2.78984e-06
2.79298e-06
2.79458e-06
2.79771e-06
2.79935e-06
2.80248e-06
2.80417e-06
2.80728e-06
2.80902e-06
2.81213e-06
2.8139e-06
2.81701e-06
2.81882e-06
2.82194e-06
2.82378e-06
2.82535e-06
2.82783e-06
2.84246e-06
2.79755e-06
2.80138e-06
2.80294e-06
2.80609e-06
2.80771e-06
2.81086e-06
2.81251e-06
2.81566e-06
2.81735e-06
2.82049e-06
2.82224e-06
2.82537e-06
2.82715e-06
2.83028e-06
2.8321e-06
2.83524e-06
2.83709e-06
2.83867e-06
2.84117e-06
2.85703e-06
2.81182e-06
2.81567e-06
2.81724e-06
2.82042e-06
2.82204e-06
2.82521e-06
2.82688e-06
2.83005e-06
2.83176e-06
2.83491e-06
2.83667e-06
2.83982e-06
2.84162e-06
2.84477e-06
2.8466e-06
2.84976e-06
2.85163e-06
2.85321e-06
2.85573e-06
2.87226e-06
2.82671e-06
2.8306e-06
2.83218e-06
2.83538e-06
2.83701e-06
2.84021e-06
2.84188e-06
2.84507e-06
2.84679e-06
2.84997e-06
2.85174e-06
2.85492e-06
2.85673e-06
2.8599e-06
2.86175e-06
2.86493e-06
2.8668e-06
2.8684e-06
2.87094e-06
2.88675e-06
2.84092e-06
2.84482e-06
2.84642e-06
2.84964e-06
2.85128e-06
2.85449e-06
2.85618e-06
2.85939e-06
2.86112e-06
2.86432e-06
2.8661e-06
2.8693e-06
2.87112e-06
2.87431e-06
2.87617e-06
2.87937e-06
2.88126e-06
2.88287e-06
2.88543e-06
2.89839e-06
2.85321e-06
2.857e-06
2.85854e-06
2.86167e-06
2.86328e-06
2.86641e-06
2.86808e-06
2.87121e-06
2.87293e-06
2.87606e-06
2.87785e-06
2.88098e-06
2.88282e-06
2.88596e-06
2.88785e-06
2.89101e-06
2.89294e-06
2.89454e-06
2.8971e-06
2.90371e-06
2.9037e-06
2.9037e-06
2.9037e-06
2.9037e-06
2.90369e-06
2.9037e-06
2.90368e-06
2.9037e-06
2.90367e-06
2.9037e-06
2.90368e-06
2.9037e-06
2.90368e-06
2.90369e-06
2.90368e-06
2.90369e-06
2.90369e-06
2.90369e-06
2.90369e-06
)
;

boundaryField
{
    movingWall
    {
        type            zeroGradient;
    }
    fixedWalls
    {
        type            zeroGradient;
    }
    frontAndBack
    {
        type            empty;
    }
}


// ************************************************************************* //
