/*--------------------------------*- C++ -*----------------------------------*\
| =========                 |                                                 |
| \\      /  F ield         | OpenFOAM: The Open Source CFD Toolbox           |
|  \\    /   O peration     | Version:  2506                                  |
|   \\  /    A nd           | Website:  www.openfoam.com                      |
|    \\/     M anipulation  |                                                 |
\*---------------------------------------------------------------------------*/
FoamFile
{
    version     2.0;
    format      ascii;
    arch        "LSB;label=32;scalar=64";
    class       volScalarField;
    location    "7.125";
    object      flowTypeField;
}
// * * * * * * * * * * * * * * * * * * * * * * * * * * * * * * * * * * * * * //

dimensions      [0 0 0 0 0 0 0];

internalField   nonuniform List<scalar> 
400
(
0.405579
0.0389673
0.0540597
-0.0147277
0.504006
-0.380492
0.0570403
0.0268819
0.306941
-0.162601
-0.0850585
0.283127
0.860573
0.210954
0.287469
0.169021
0.860863
0.309373
0.21211
0.0182207
0.978374
0.938278
0.922387
0.864762
0.938476
0.398361
0.864039
0.429958
0.499424
0.696869
-0.580758
-0.324158
0.00963837
-0.332014
-0.15496
0.0872176
0.780977
-0.307539
0.965908
0.955316
0.542789
0.10757
0.0283813
0.104516
0.258168
-0.459137
0.0998336
0.419345
0.0887088
-0.0150834
-0.25313
0.778288
0.255233
0.797592
0.457222
0.684766
0.614555
-0.550801
-0.261467
0.0787098
0.62451
0.143441
0.0794528
0.103936
0.0436004
0.303906
0.0811107
0.515227
0.17035
0.00215921
0.408339
0.441225
-0.0829509
0.0166455
0.530767
0.82586
0.0940075
-0.0981114
0.0342517
0.827042
0.933613
0.739049
0.765314
0.787941
0.108094
-0.138173
-0.174707
0.00769317
0.110331
0.132329
0.626459
0.820993
0.164231
0.0127268
0.100926
0.56525
0.10204
0.0594628
0.634052
0.774588
0.641776
0.140986
0.0846923
0.152524
0.0550539
0.307797
0.471581
0.767996
0.010642
-0.40559
-0.255872
-0.0244345
0.948307
0.106786
0.0580157
-0.0688188
0.073667
0.696273
0.880583
0.104537
0.303403
0.0691836
0.00239492
0.107388
-0.475402
0.737251
-0.231951
-0.0207485
0.0983849
0.118863
-0.0485269
-0.141866
-0.129439
-0.155112
-0.134351
-0.0849456
-0.0548471
0.315267
0.890457
-0.297543
0.820207
0.2645
0.298927
0.092812
0.931497
0.232296
0.22829
0.454829
0.273287
0.0501729
0.816094
0.228039
0.734654
0.0712639
0.460608
0.817757
0.690453
0.408902
0.435565
0.240927
0.746685
0.21326
0.179026
0.0856078
0.556432
-0.562736
0.136267
0.00917573
-0.069991
0.263535
0.262914
0.63483
-0.143752
0.309649
0.955945
-0.00144377
-0.146961
0.520816
0.0539757
0.243955
0.203585
0.0310315
-0.0188217
-0.133755
0.179923
-0.30031
0.00479882
0.294894
-0.0805229
-0.0327443
0.3196
0.387939
0.245652
0.0304984
0.00319569
0.358204
0.52973
0.556586
0.685013
0.601986
0.152169
0.0133613
-0.019699
-0.0330084
-0.520654
0.238737
-0.295508
-0.16803
0.1121
0.624781
0.211267
0.113469
0.0189717
0.68387
0.670504
-0.168138
0.0177538
0.971884
0.218219
0.460635
0.57584
0.0967948
0.0382065
0.407825
-0.111757
0.241964
0.191511
0.0459433
0.174297
-0.0893331
-0.0744964
-0.107005
-0.0338194
0.0882106
0.00909905
0.109553
0.584118
0.833007
0.275653
0.894718
0.949947
0.73401
0.836433
0.272501
0.899389
0.915268
-0.189621
-0.679534
-0.124055
0.178205
-0.0289626
-0.17889
0.129979
0.951721
0.143849
0.537492
0.218365
-0.0862949
0.792001
0.067928
0.53424
0.0825739
0.0124792
0.208489
-0.589496
0.481417
0.688332
0.237206
0.496299
0.0937271
0.168977
0.197658
0.0710201
0.189754
-0.551454
0.514719
0.0807055
0.462486
0.362704
0.446209
0.177835
0.0485847
-0.0168011
0.0869688
-0.474963
0.443699
-0.36187
-0.545546
-0.230702
0.733843
-0.395804
-0.478881
0.32701
-0.365105
0.190117
0.433012
-0.0668527
0.0725491
0.652024
0.132173
0.575578
0.120687
0.0487527
0.184879
-0.628954
0.112806
-0.109322
0.195547
0.287036
0.419275
0.293102
-0.0517983
-0.124339
-0.147378
-0.018056
-0.00574512
0.876966
-0.106493
-0.0100017
0.812906
0.934669
0.737515
0.820291
0.596099
0.780256
-0.136283
0.568049
0.203878
-0.1197
-0.354004
0.0638256
0.396837
0.0639498
0.137491
0.465048
-0.0960604
0.133144
0.446261
0.257439
0.68231
0.589248
0.135905
0.0366094
0.193074
-0.437296
0.540683
0.409433
0.162489
0.675547
0.335893
0.22242
0.664704
-0.230979
0.0466017
0.0330037
0.0568345
-0.22992
0.705441
0.770276
0.0145403
0.798259
0.324705
0.252844
0.521275
-0.197253
0.470082
-0.121342
-0.147435
-0.0570288
0.0639677
0.0320724
0.197562
0.813765
0.268761
-0.0117012
0.0386522
0.0462492
0.120713
0.583988
0.912347
0.647287
0.130934
0.190426
-0.0750485
0.859855
-0.165105
0.38837
0.13569
-0.0133426
0.366375
0.342013
0.560031
-0.0163386
0.295582
0.0228211
0.175278
0.187201
0.681908
0.798166
0.353385
)
;

boundaryField
{
    movingWall
    {
        type            calculated;
        value           nonuniform List<scalar> 
20
(
0.561359
0.0959467
0.377621
-0.181868
0.286433
-0.099206
0.0709929
0.0119375
-0.0314836
0.0354246
0.0634639
0.0795258
-0.10888
0.199055
0.179926
0.15503
0.19111
0.685516
0.223664
0.246328
)
;
    }
    fixedWalls
    {
        type            calculated;
        value           nonuniform List<scalar> 
60
(
0.0502048
0.923014
0.0969327
0.125114
0.739366
0.132913
0.0556786
0.284476
0.221164
0.0226685
0.010278
0.0968399
0.773088
0.0799409
0.0344004
0.110333
0.751007
0.114883
0.326017
0.139093
0.0103421
0.5668
0.0201778
0.397868
0.764604
0.514589
-0.177065
0.679736
-0.176869
0.262774
0.872439
0.692241
-0.157441
0.0100164
0.798573
0.826517
0.636728
0.17547
0.886592
0.717668
0.68956
0.153223
0.359187
-0.0390177
0.610359
-0.155083
0.0437373
0.0159378
0.0919218
0.280065
-0.0318241
0.125232
0.203242
0.115187
0.11082
0.140324
0.874958
0.189288
0.476768
0.355163
)
;
    }
    frontAndBack
    {
        type            empty;
    }
}


// ************************************************************************* //
