/*--------------------------------*- C++ -*----------------------------------*\
| =========                 |                                                 |
| \\      /  F ield         | OpenFOAM: The Open Source CFD Toolbox           |
|  \\    /   O peration     | Version:  2506                                  |
|   \\  /    A nd           | Website:  www.openfoam.com                      |
|    \\/     M anipulation  |                                                 |
\*---------------------------------------------------------------------------*/
FoamFile
{
    version     2.0;
    format      ascii;
    arch        "LSB;label=32;scalar=64";
    class       surfaceScalarField;
    location    "7.125";
    object      fluxField;
}
// * * * * * * * * * * * * * * * * * * * * * * * * * * * * * * * * * * * * * //

dimensions      [0 3 -1 0 0 0 0];

oriented        oriented;

internalField   nonuniform List<scalar> 
760
(
-5e-05
4.21271e-18
-5e-05
-8.57855e-19
-5e-05
2.16046e-19
-5e-05
-3.77901e-20
-5e-05
1.49704e-20
-5e-05
3.10457e-21
-5e-05
4.24711e-21
-5e-05
3.83349e-21
-5e-05
1.65716e-21
-5e-05
1.0863e-21
-5e-05
3.94545e-21
-5e-05
8.30664e-21
-5e-05
8.77364e-21
-5e-05
2.19458e-21
-5e-05
-2.20117e-21
-5e-05
-4.34957e-21
-5e-05
-6.57022e-21
-5e-05
-7.24522e-22
-5e-05
3.55013e-21
8.05023e-22
-5e-05
-3.39463e-18
-5e-05
7.6913e-19
-5e-05
-1.658e-19
-5e-05
3.61592e-20
-5e-05
-1.12557e-20
-5e-05
3.52947e-21
-5e-05
4.67114e-21
-5e-05
5.00832e-21
-5e-05
-2.09436e-21
-5e-05
-3.70162e-21
-5e-05
6.2218e-21
-5e-05
1.22776e-20
-5e-05
9.42541e-21
-5e-05
1.42058e-21
-5e-05
-1.0329e-21
-5e-05
1.13168e-21
-5e-05
2.21888e-22
-5e-05
-6.91839e-23
-5e-05
-3.11903e-21
-5.01745e-21
-5e-05
-5.10017e-19
-5e-05
1.12233e-19
-5e-05
-1.41868e-20
-5e-05
1.7677e-21
-5e-05
-1.27321e-21
-5e-05
6.60676e-21
-5e-05
1.03328e-20
-5e-05
6.87428e-21
-5e-05
5.24527e-22
-5e-05
1.50097e-22
-5e-05
7.00808e-21
-5e-05
6.93596e-21
-5e-05
1.57633e-21
-5e-05
-8.46521e-22
-5e-05
2.83315e-21
-5e-05
6.67521e-21
-5e-05
4.92353e-21
-5e-05
-5.59812e-22
-5e-05
-7.78133e-21
-8.69332e-21
-5e-05
2.64686e-18
-5e-05
-5.81708e-19
-5e-05
1.4535e-19
-5e-05
-2.4316e-20
-5e-05
1.46355e-20
-5e-05
7.59954e-21
-5e-05
6.58093e-21
-5e-05
9.41432e-22
-5e-05
9.37526e-22
-5e-05
1.33452e-21
-5e-05
3.86359e-22
-5e-05
-6.37716e-22
-5e-05
-1.63224e-21
-5e-05
6.91269e-22
-5e-05
5.73479e-21
-5e-05
4.21487e-21
-5e-05
1.16758e-21
-5e-05
-3.3149e-22
-5e-05
-5.83734e-21
-7.11189e-21
-5e-05
-3.09574e-18
-5e-05
6.7542e-19
-5e-05
-1.53555e-19
-5e-05
4.27541e-20
-5e-05
2.23507e-21
-5e-05
9.92367e-21
-5e-05
5.30679e-21
-5e-05
4.61698e-21
-5e-05
6.97725e-21
-5e-05
5.12985e-21
-5e-05
-1.44225e-21
-5e-05
-5.21589e-21
-5e-05
-6.12617e-21
-5e-05
-2.81878e-21
-5e-05
2.43975e-21
-5e-05
1.39997e-21
-5e-05
1.10725e-21
-5e-05
3.96437e-22
-5e-05
-3.4807e-21
-3.70232e-21
-5e-05
1.29535e-18
-5e-05
-2.66989e-19
-5e-05
6.87555e-20
-5e-05
-8.33588e-21
-5e-05
9.69001e-21
-5e-05
5.60649e-21
-5e-05
6.78878e-21
-5e-05
9.48793e-21
-5e-05
1.08978e-20
-5e-05
8.90101e-21
-5e-05
4.63554e-21
-5e-05
3.33899e-21
-5e-05
1.84777e-21
-5e-05
-4.40791e-22
-5e-05
9.89719e-22
-5e-05
-6.47782e-22
-5e-05
-3.95935e-21
-5e-05
-6.68231e-21
-5e-05
-3.205e-21
-1.1318e-21
-5e-05
2.38908e-18
-5e-05
-5.08661e-19
-5e-05
1.24718e-19
-5e-05
-2.23263e-20
-5e-05
1.05022e-20
-5e-05
5.58531e-21
-5e-05
6.21939e-21
-5e-05
6.99542e-21
-5e-05
5.83674e-21
-5e-05
6.15778e-21
-5e-05
5.59486e-21
-5e-05
7.66507e-21
-5e-05
7.55155e-21
-5e-05
3.49541e-21
-5e-05
1.22634e-21
-5e-05
-2.64113e-21
-5e-05
-7.04306e-21
-5e-05
-5.65435e-21
-5e-05
-6.73954e-22
-1.14691e-21
-5e-05
-3.44981e-18
-5e-05
7.58155e-19
-5e-05
-1.75297e-19
-5e-05
4.28751e-20
-5e-05
-2.64911e-21
-5e-05
1.11077e-20
-5e-05
9.36307e-21
-5e-05
8.63878e-21
-5e-05
1.95259e-21
-5e-05
8.72282e-22
-5e-05
2.97497e-22
-5e-05
3.62143e-22
-5e-05
1.5192e-21
-5e-05
4.06174e-21
-5e-05
-3.89644e-22
-5e-05
-4.59622e-21
-5e-05
-2.1396e-21
-5e-05
3.382e-21
-5e-05
3.08446e-21
-1.15588e-21
-5e-05
1.97421e-18
-5e-05
-4.20662e-19
-5e-05
1.0258e-19
-5e-05
-1.17501e-20
-5e-05
1.5941e-20
-5e-05
8.59923e-21
-5e-05
7.15035e-21
-5e-05
3.08024e-21
-5e-05
-2.5383e-21
-5e-05
-5.70306e-21
-5e-05
-4.96937e-21
-5e-05
-1.60839e-21
-5e-05
2.49622e-21
-5e-05
5.21362e-21
-5e-05
-1.19447e-21
-5e-05
-4.8635e-21
-5e-05
-2.54439e-21
-5e-05
1.61321e-21
-5e-05
1.99297e-21
-5.63418e-22
-5e-05
1.28228e-19
-5e-05
-1.51489e-20
-5e-05
1.46405e-20
-5e-05
1.52908e-20
-5e-05
1.62415e-20
-5e-05
1.03267e-20
-5e-05
2.74028e-21
-5e-05
-5.94025e-21
-5e-05
-7.27409e-21
-5e-05
-6.77061e-21
-5e-05
-4.26301e-21
-5e-05
-1.15842e-21
-5e-05
9.05211e-22
-5e-05
3.55379e-22
-5e-05
-6.79678e-23
-5e-05
-4.96762e-22
-5e-05
-4.13965e-21
-5e-05
-4.02786e-21
-5e-05
-1.80702e-21
-1.64146e-21
-5e-05
-1.62921e-18
-5e-05
3.4014e-19
-5e-05
-7.48041e-20
-5e-05
2.56668e-20
-5e-05
5.28953e-21
-5e-05
5.28479e-21
-5e-05
8.99383e-22
-5e-05
-5.88838e-21
-5e-05
-5.75513e-21
-5e-05
-1.64434e-21
-5e-05
1.60828e-21
-5e-05
2.48927e-21
-5e-05
3.00003e-21
-5e-05
2.55105e-21
-5e-05
3.74119e-21
-5e-05
2.17521e-21
-5e-05
-2.02886e-21
-5e-05
-3.685e-21
-5e-05
-1.48342e-21
-2.08698e-21
-5e-05
2.2056e-18
-5e-05
-4.99127e-19
-5e-05
1.10907e-19
-5e-05
-2.96612e-20
-5e-05
4.81256e-22
-5e-05
-8.70938e-21
-5e-05
-5.59303e-21
-5e-05
-4.09926e-21
-5e-05
-3.24533e-22
-5e-05
1.21771e-21
-5e-05
7.4126e-22
-5e-05
3.78776e-21
-5e-05
5.53332e-21
-5e-05
4.93572e-21
-5e-05
4.15547e-21
-5e-05
3.85006e-21
-5e-05
2.95126e-21
-5e-05
1.01569e-21
-5e-05
1.03729e-21
-9.84231e-22
-5e-05
-1.97062e-18
-5e-05
4.38782e-19
-5e-05
-1.01627e-19
-5e-05
1.74826e-20
-5e-05
-1.669e-20
-5e-05
-1.18245e-20
-5e-05
-1.06359e-20
-5e-05
-5.67752e-21
-5e-05
-4.25972e-22
-5e-05
2.93737e-21
-5e-05
-1.28012e-21
-5e-05
-4.69243e-23
-5e-05
1.91476e-22
-5e-05
-7.77429e-22
-5e-05
1.0821e-21
-5e-05
4.92952e-21
-5e-05
6.10159e-21
-5e-05
5.43874e-21
-5e-05
1.86057e-21
-1.83308e-21
-5e-05
1.45309e-18
-5e-05
-3.10469e-19
-5e-05
7.28333e-20
-5e-05
-2.22811e-20
-5e-05
-6.71469e-21
-5e-05
-1.11166e-20
-5e-05
-7.95335e-21
-5e-05
-1.90321e-21
-5e-05
3.61557e-21
-5e-05
7.40279e-21
-5e-05
1.83356e-21
-5e-05
-3.31233e-21
-5e-05
-3.93253e-21
-5e-05
-2.09424e-21
-5e-05
1.19167e-21
-5e-05
4.04862e-21
-5e-05
5.37586e-21
-5e-05
8.50792e-21
-5e-05
3.95202e-21
-2.72703e-21
-5e-05
9.96007e-19
-5e-05
-2.23405e-19
-5e-05
4.46859e-20
-5e-05
-1.79602e-20
-5e-05
-2.41759e-21
-5e-05
-6.67629e-21
-5e-05
-7.61131e-21
-5e-05
-1.65512e-21
-5e-05
2.54587e-21
-5e-05
7.1318e-22
-5e-05
-2.56751e-21
-5e-05
-5.01383e-21
-5e-05
-2.89894e-21
-5e-05
6.77384e-22
-5e-05
3.02626e-21
-5e-05
5.00267e-21
-5e-05
6.00028e-21
-5e-05
8.36219e-21
-5e-05
4.02841e-21
-1.52647e-21
-5e-05
-3.09519e-18
-5e-05
6.6846e-19
-5e-05
-1.58604e-19
-5e-05
3.4988e-20
-5e-05
-7.83263e-21
-5e-05
-3.1733e-21
-5e-05
-9.9203e-21
-5e-05
-7.72954e-21
-5e-05
-6.3063e-21
-5e-05
-4.74873e-21
-5e-05
-8.39593e-22
-5e-05
1.96078e-21
-5e-05
2.44317e-21
-5e-05
1.13459e-21
-5e-05
2.49021e-21
-5e-05
3.13322e-21
-5e-05
5.27799e-21
-5e-05
3.78368e-21
-5e-05
2.05944e-21
5.17674e-22
-5e-05
2.51258e-18
-5e-05
-5.41102e-19
-5e-05
1.34081e-19
-5e-05
-2.33959e-20
-5e-05
6.57191e-21
-5e-05
-3.4028e-21
-5e-05
-4.27158e-21
-5e-05
-5.17358e-21
-5e-05
-6.51953e-21
-5e-05
-4.09124e-21
-5e-05
3.98264e-21
-5e-05
8.4222e-21
-5e-05
4.1153e-21
-5e-05
-1.33596e-22
-5e-05
2.74823e-21
-5e-05
1.65972e-21
-5e-05
7.9006e-22
-5e-05
-3.21618e-21
-5e-05
-1.66094e-21
9.81765e-22
-5e-05
1.6618e-18
-5e-05
-3.6582e-19
-5e-05
8.8455e-20
-5e-05
-1.84087e-20
-5e-05
3.8475e-21
-5e-05
1.54892e-21
-5e-05
3.53796e-21
-5e-05
-2.46876e-21
-5e-05
-5.60493e-21
-5e-05
-8.06827e-21
-5e-05
-3.94249e-21
-5e-05
2.90577e-22
-5e-05
-1.51522e-22
-5e-05
6.40055e-22
-5e-05
2.24238e-21
-5e-05
1.93625e-21
-5e-05
-2.16106e-21
-5e-05
-5.94707e-21
-5e-05
-3.64493e-21
5.55035e-22
-5e-05
-3.20437e-18
-5e-05
6.80768e-19
-5e-05
-1.67543e-19
-5e-05
3.15727e-20
-5e-05
-8.46448e-21
-5e-05
4.02153e-21
-5e-05
3.52107e-21
-5e-05
-2.81471e-21
-5e-05
-2.79532e-21
-5e-05
-3.42519e-21
-5e-05
-5.13545e-21
-5e-05
-6.57896e-21
-5e-05
-2.40428e-21
-5e-05
2.13795e-21
-5e-05
-8.34481e-22
-5e-05
-2.10785e-21
-5e-05
-3.54348e-21
-5e-05
-3.50429e-21
-5e-05
2.98134e-22
1.38046e-21
-5e-05
-5e-05
-5e-05
-5e-05
-5e-05
-5e-05
-5e-05
-5e-05
-5e-05
-5e-05
-5e-05
-5e-05
-5e-05
-5e-05
-5e-05
-5e-05
-5e-05
-5e-05
-5e-05
)
;

boundaryField
{
    movingWall
    {
        type            calculated;
        value           uniform -0;
    }
    fixedWalls
    {
        type            calculated;
        value           nonuniform List<scalar> 
60
(
5e-05
5e-05
5e-05
5e-05
5e-05
5e-05
5e-05
5e-05
5e-05
5e-05
5e-05
5e-05
5e-05
5e-05
5e-05
5e-05
5e-05
5e-05
5e-05
5e-05
-5e-05
-5e-05
-5e-05
-5e-05
-5e-05
-5e-05
-5e-05
-5e-05
-5e-05
-5e-05
-5e-05
-5e-05
-5e-05
-5e-05
-5e-05
-5e-05
-5e-05
-5e-05
-5e-05
-5e-05
0
0
0
0
0
0
0
0
0
0
0
0
0
0
0
0
0
0
0
0
)
;
    }
    frontAndBack
    {
        type            empty;
    }
}


// ************************************************************************* //
