/*--------------------------------*- C++ -*----------------------------------*\
| =========                 |                                                 |
| \\      /  F ield         | OpenFOAM: The Open Source CFD Toolbox           |
|  \\    /   O peration     | Version:  2506                                  |
|   \\  /    A nd           | Website:  www.openfoam.com                      |
|    \\/     M anipulation  |                                                 |
\*---------------------------------------------------------------------------*/
FoamFile
{
    version     2.0;
    format      ascii;
    arch        "LSB;label=32;scalar=64";
    class       volTensorField;
    location    "7.125";
    object      gradU;
}
// * * * * * * * * * * * * * * * * * * * * * * * * * * * * * * * * * * * * * //

dimensions      [0 0 -1 0 0 0 0];

internalField   nonuniform List<tensor> 
400
(
(-5.69206e-13 1.2949e-11 0 1.21973e-12 1.68508e-11 0 0 0 0)
(1.16552e-12 -1.55671e-11 0 -2.1684e-13 -3.43142e-12 0 0 0 0)
(-4.06576e-13 3.29503e-12 0 5.42101e-14 8.64184e-13 0 0 0 0)
(-2.71051e-14 -7.74038e-13 0 2.71051e-14 -1.5116e-13 0 0 0 0)
(-2.71051e-14 1.68854e-13 0 8.13152e-14 5.98816e-14 0 0 0 0)
(-2.71051e-14 -4.35639e-14 0 5.42101e-14 1.24183e-14 0 0 0 0)
(0 7.65436e-16 0 5.42101e-14 1.69884e-14 0 0 0 0)
(-2.71051e-14 -3.43437e-15 0 8.13152e-14 1.5334e-14 0 0 0 0)
(-2.71051e-14 1.56964e-15 0 2.71051e-14 6.62863e-15 0 0 0 0)
(0 -5.00976e-15 0 2.71051e-14 4.34519e-15 0 0 0 0)
(0 -8.79789e-15 0 8.13152e-14 1.57818e-14 0 0 0 0)
(-5.42101e-14 -3.22799e-15 0 5.42101e-14 3.32266e-14 0 0 0 0)
(-5.42101e-14 -6.20554e-15 0 0 3.50946e-14 0 0 0 0)
(0 -1.02391e-14 0 0 8.77831e-15 0 0 0 0)
(0 -7.82248e-15 0 0 -8.80467e-15 0 0 0 0)
(0 -7.31374e-15 0 -5.42101e-14 -1.73983e-14 0 0 0 0)
(8.13152e-14 8.40384e-15 0 0 -2.62809e-14 0 0 0 0)
(2.71051e-14 2.34718e-14 0 0 -2.89809e-15 0 0 0 0)
(-5.42101e-14 5.88031e-15 0 -5.42101e-14 1.42005e-14 0 0 0 0)
(0 -1.62046e-14 0 0 3.22009e-15 0 0 0 0)
(1.5992e-12 4.70385e-13 0 0 -3.04293e-11 0 0 0 0)
(-2.33103e-12 -4.19498e-13 0 -1.0842e-13 6.50794e-12 0 0 0 0)
(6.23416e-13 -1.4775e-14 0 -1.0842e-13 -1.52738e-12 0 0 0 0)
(5.42101e-14 -3.02652e-14 0 0 2.95797e-13 0 0 0 0)
(8.13152e-14 -5.27522e-15 0 0 -1.04904e-13 0 0 0 0)
(0 6.70767e-16 0 0 1.69959e-15 0 0 0 0)
(2.71051e-14 2.15024e-15 0 0 1.69613e-15 0 0 0 0)
(-2.71051e-14 -6.92542e-15 0 -2.71051e-14 4.6993e-15 0 0 0 0)
(0 -1.25584e-14 0 -2.71051e-14 -1.50061e-14 0 0 0 0)
(5.42101e-14 1.41629e-14 0 0 -1.91517e-14 0 0 0 0)
(0 3.76793e-14 0 -2.71051e-14 9.1054e-15 0 0 0 0)
(0 2.25408e-14 0 -5.42101e-14 1.58838e-14 0 0 0 0)
(0 -1.82427e-14 0 0 2.60706e-15 0 0 0 0)
(-2.71051e-14 -3.36601e-14 0 5.42101e-14 -3.096e-15 0 0 0 0)
(-2.71051e-14 -1.83541e-14 0 5.42101e-14 4.67308e-15 0 0 0 0)
(-5.42101e-14 -1.01625e-14 0 8.13152e-14 2.1925e-14 0 0 0 0)
(-2.71051e-14 6.09633e-15 0 0 2.71684e-14 0 0 0 0)
(0 1.70096e-14 0 -5.42101e-14 2.62135e-15 0 0 0 0)
(2.71051e-14 2.37867e-16 0 0 -2.66767e-14 0 0 0 0)
(5.42101e-14 -1.21606e-15 0 0 -2.32899e-14 0 0 0 0)
(-6.23416e-13 -1.09724e-11 0 -4.33681e-12 1.15384e-11 0 0 0 0)
(1.0571e-12 1.33348e-11 0 1.19262e-12 -2.62759e-12 0 0 0 0)
(-3.79471e-13 -2.91711e-12 0 0 6.06452e-13 0 0 0 0)
(5.42101e-14 6.48441e-13 0 5.42101e-14 -1.37566e-13 0 0 0 0)
(2.71051e-14 -1.25244e-13 0 -2.71051e-14 3.99299e-14 0 0 0 0)
(-2.71051e-14 6.30365e-14 0 -5.42101e-14 1.23092e-14 0 0 0 0)
(-2.71051e-14 3.76515e-15 0 -5.42101e-14 2.26468e-14 0 0 0 0)
(-2.71051e-14 -2.01366e-14 0 -5.42101e-14 7.46383e-15 0 0 0 0)
(0 -2.22813e-14 0 0 1.04756e-14 0 0 0 0)
(-2.71051e-14 1.91017e-14 0 -2.71051e-14 1.54069e-14 0 0 0 0)
(-2.71051e-14 2.62376e-14 0 -5.42101e-14 3.14513e-15 0 0 0 0)
(-5.42101e-14 -9.72633e-15 0 0 -2.13665e-14 0 0 0 0)
(5.42101e-14 -2.51853e-14 0 2.71051e-14 -3.13963e-14 0 0 0 0)
(5.42101e-14 -8.17311e-15 0 0 -9.06839e-15 0 0 0 0)
(2.71051e-14 1.71985e-14 0 0 1.54642e-14 0 0 0 0)
(-5.42101e-14 1.51816e-14 0 0 2.21741e-14 0 0 0 0)
(-2.71051e-14 -1.08998e-14 0 0 1.88066e-14 0 0 0 0)
(0 -3.03733e-14 0 5.42101e-14 -1.96251e-15 0 0 0 0)
(0 -2.00309e-14 0 5.42101e-14 -1.86492e-14 0 0 0 0)
(0 3.3762e-14 0 0 -1.47035e-14 0 0 0 0)
(-1.57209e-12 9.38123e-12 0 4.17418e-12 1.26275e-11 0 0 0 0)
(1.97867e-12 -1.13515e-11 0 -1.24683e-12 -2.77576e-12 0 0 0 0)
(-5.14996e-13 2.47525e-12 0 8.13152e-14 6.38147e-13 0 0 0 0)
(2.71051e-14 -5.96787e-13 0 -5.42101e-14 -1.04335e-13 0 0 0 0)
(-8.13152e-14 1.446e-13 0 -2.71051e-14 6.36346e-14 0 0 0 0)
(0 -1.66123e-14 0 -5.42101e-14 3.9711e-15 0 0 0 0)
(0 -2.69509e-15 0 -5.42101e-14 -1.50076e-14 0 0 0 0)
(5.42101e-14 -1.90967e-14 0 -5.42101e-14 -2.37314e-14 0 0 0 0)
(2.71051e-14 -4.61537e-15 0 -5.42101e-14 1.652e-15 0 0 0 0)
(-2.71051e-14 6.8325e-15 0 -5.42101e-14 4.7377e-15 0 0 0 0)
(8.13152e-14 9.05901e-16 0 -5.42101e-14 -2.64869e-14 0 0 0 0)
(5.42101e-14 -1.20007e-14 0 -5.42101e-14 -3.02947e-14 0 0 0 0)
(0 -5.94462e-15 0 2.71051e-14 -1.28343e-14 0 0 0 0)
(-2.71051e-14 1.32004e-14 0 -2.71051e-14 6.15116e-15 0 0 0 0)
(-2.71051e-14 1.28884e-14 0 0 1.16066e-14 0 0 0 0)
(-5.42101e-14 -6.8201e-15 0 0 -9.84134e-15 0 0 0 0)
(5.42101e-14 -1.80403e-14 0 5.42101e-14 -1.50238e-14 0 0 0 0)
(2.71051e-14 -2.04461e-14 0 2.71051e-14 9.13287e-16 0 0 0 0)
(-2.71051e-14 -1.25031e-14 0 2.71051e-14 7.77596e-15 0 0 0 0)
(0 3.21366e-14 0 2.71051e-14 6.32573e-15 0 0 0 0)
(2.24972e-12 -1.12062e-12 0 0 -2.29704e-11 0 0 0 0)
(-3.03577e-12 1.34544e-12 0 8.13152e-14 5.02851e-12 0 0 0 0)
(8.13152e-13 -2.4568e-13 0 2.71051e-14 -1.19562e-12 0 0 0 0)
(-5.42101e-14 7.39288e-14 0 2.71051e-14 2.68281e-13 0 0 0 0)
(5.42101e-14 -1.69377e-14 0 8.13152e-14 -4.96015e-14 0 0 0 0)
(0 -1.56058e-14 0 1.0842e-13 9.29654e-15 0 0 0 0)
(0 -2.39373e-14 0 1.35525e-13 -5.09656e-15 0 0 0 0)
(-2.71051e-14 -3.47694e-15 0 1.0842e-13 1.47022e-14 0 0 0 0)
(0 6.18772e-15 0 8.13152e-14 2.41589e-14 0 0 0 0)
(-8.13152e-14 -9.03717e-15 0 1.0842e-13 1.51813e-14 0 0 0 0)
(-2.71051e-14 -8.79485e-15 0 0 -7.31443e-15 0 0 0 0)
(2.71051e-14 3.92629e-15 0 0 -1.83127e-14 0 0 0 0)
(5.42101e-14 1.12606e-14 0 -5.42101e-14 -1.79757e-14 0 0 0 0)
(2.71051e-14 1.62677e-14 0 -2.71051e-14 -1.40402e-14 0 0 0 0)
(2.71051e-14 1.20599e-15 0 -5.42101e-14 -1.31801e-14 0 0 0 0)
(2.71051e-14 -1.14487e-14 0 0 -1.12596e-14 0 0 0 0)
(-2.71051e-14 -1.45149e-16 0 -5.42101e-14 -2.41338e-16 0 0 0 0)
(0 -7.57357e-15 0 0 2.91171e-15 0 0 0 0)
(-2.71051e-14 -1.46185e-14 0 -2.71051e-14 9.42659e-15 0 0 0 0)
(-2.71051e-14 1.96603e-14 0 2.71051e-14 1.36383e-14 0 0 0 0)
(-1.46367e-12 -8.56066e-12 0 -2.60209e-12 1.75644e-11 0 0 0 0)
(2.03288e-12 1.04233e-11 0 8.13152e-13 -3.76964e-12 0 0 0 0)
(-5.14996e-13 -2.28498e-12 0 0 8.8924e-13 0 0 0 0)
(5.42101e-14 5.4923e-13 0 5.42101e-14 -2.0436e-13 0 0 0 0)
(-2.71051e-14 -1.14384e-13 0 0 2.98198e-14 0 0 0 0)
(2.71051e-14 2.78927e-14 0 0 -1.72687e-14 0 0 0 0)
(0 2.71056e-15 0 0 5.92794e-15 0 0 0 0)
(-5.42101e-14 1.01588e-14 0 0 1.94838e-14 0 0 0 0)
(0 -4.13624e-15 0 2.71051e-14 1.56823e-14 0 0 0 0)
(0 -2.46408e-14 0 2.71051e-14 1.50846e-14 0 0 0 0)
(0 -3.25881e-14 0 1.0842e-13 2.43112e-14 0 0 0 0)
(-5.42101e-14 -2.2662e-14 0 1.0842e-13 3.42195e-14 0 0 0 0)
(-5.42101e-14 -1.67212e-15 0 0 3.18958e-14 0 0 0 0)
(0 1.7996e-14 0 0 9.51197e-15 0 0 0 0)
(0 1.5669e-14 0 0 -5.80014e-15 0 0 0 0)
(0 6.11869e-15 0 -8.13152e-14 -8.19101e-15 0 0 0 0)
(0 -3.86898e-15 0 -8.13152e-14 -2.02664e-14 0 0 0 0)
(5.42101e-14 -1.07782e-14 0 -2.71051e-14 -2.8315e-14 0 0 0 0)
(2.71051e-14 -1.77652e-15 0 0 1.10279e-15 0 0 0 0)
(-2.71051e-14 9.07174e-15 0 -2.71051e-14 1.02821e-14 0 0 0 0)
(4.33681e-13 1.26741e-11 0 3.44234e-12 4.37494e-12 0 0 0 0)
(-3.79471e-13 -1.53297e-11 0 -1.02999e-12 -9.66687e-13 0 0 0 0)
(5.42101e-14 3.3196e-12 0 0 2.2385e-13 0 0 0 0)
(-5.42101e-14 -7.85491e-13 0 -8.13152e-14 -5.59616e-14 0 0 0 0)
(0 1.70154e-13 0 -8.13152e-14 3.24897e-15 0 0 0 0)
(-2.71051e-14 -3.94976e-14 0 -5.42101e-14 -8.47185e-17 0 0 0 0)
(0 1.28152e-14 0 -5.42101e-14 -2.27757e-15 0 0 0 0)
(2.71051e-14 6.27741e-15 0 -1.0842e-13 -9.97002e-15 0 0 0 0)
(5.42101e-14 1.78856e-15 0 -1.0842e-13 -2.02443e-14 0 0 0 0)
(-2.71051e-14 -4.08306e-16 0 -5.42101e-14 -1.09729e-14 0 0 0 0)
(-2.71051e-14 1.03401e-14 0 -5.42101e-14 3.83729e-15 0 0 0 0)
(0 1.15109e-14 0 -5.42101e-14 1.73043e-14 0 0 0 0)
(0 -1.3447e-14 0 5.42101e-14 2.28151e-14 0 0 0 0)
(-2.71051e-14 -2.14282e-14 0 5.42101e-14 1.57448e-14 0 0 0 0)
(-2.71051e-14 -1.6497e-14 0 5.42101e-14 9.46498e-16 0 0 0 0)
(-5.42101e-14 -2.5915e-14 0 1.0842e-13 -7.97341e-15 0 0 0 0)
(5.42101e-14 -2.02691e-14 0 1.35525e-13 -1.23349e-14 0 0 0 0)
(2.71051e-14 1.37956e-14 0 5.42101e-14 4.11182e-15 0 0 0 0)
(-2.71051e-14 2.39786e-14 0 2.71051e-14 1.01242e-14 0 0 0 0)
(0 8.27544e-15 0 -2.71051e-14 -6.04451e-17 0 0 0 0)
(9.48677e-13 -5.15241e-12 0 -1.81604e-12 -2.33556e-11 0 0 0 0)
(-1.49078e-12 6.27221e-12 0 4.33681e-13 5.06727e-12 0 0 0 0)
(4.60786e-13 -1.37426e-12 0 -1.0842e-13 -1.20006e-12 0 0 0 0)
(2.71051e-14 3.28628e-13 0 -5.42101e-14 2.60805e-13 0 0 0 0)
(-2.71051e-14 -5.85072e-14 0 -5.42101e-14 -5.26054e-14 0 0 0 0)
(8.13152e-14 2.23661e-14 0 -5.42101e-14 2.20895e-14 0 0 0 0)
(-5.42101e-14 -7.17474e-15 0 -8.13152e-14 1.25747e-14 0 0 0 0)
(-2.71051e-14 -7.808e-15 0 -2.71051e-14 6.57342e-15 0 0 0 0)
(0 -5.13913e-15 0 -2.71051e-14 -1.55366e-14 0 0 0 0)
(2.71051e-14 -5.59203e-16 0 -1.0842e-13 -2.1142e-14 0 0 0 0)
(-2.71051e-14 -4.31088e-15 0 0 -2.11895e-14 0 0 0 0)
(2.71051e-14 -3.68417e-15 0 -5.42101e-14 -2.92117e-14 0 0 0 0)
(1.0842e-13 -3.23167e-15 0 -2.71051e-14 -2.41294e-14 0 0 0 0)
(0 -3.87262e-15 0 -5.42101e-14 2.26532e-15 0 0 0 0)
(2.71051e-14 -8.04917e-15 0 -2.71051e-14 -6.46395e-15 0 0 0 0)
(5.42101e-14 -7.16266e-15 0 0 -7.82033e-15 0 0 0 0)
(-2.71051e-14 8.21625e-15 0 0 1.96139e-14 0 0 0 0)
(-5.42101e-14 1.16808e-14 0 -2.71051e-14 3.61454e-14 0 0 0 0)
(-2.71051e-14 -5.94879e-15 0 -2.71051e-14 1.50336e-14 0 0 0 0)
(-2.71051e-14 -9.91994e-16 0 2.71051e-14 -3.58884e-17 0 0 0 0)
(-9.21572e-13 -5.61422e-12 0 -1.0571e-12 2.16961e-11 0 0 0 0)
(1.35525e-12 6.82584e-12 0 3.52366e-13 -4.71527e-12 0 0 0 0)
(-4.33681e-13 -1.48686e-12 0 5.42101e-14 1.11151e-12 0 0 0 0)
(-5.42101e-14 3.61965e-13 0 -2.71051e-14 -2.18501e-13 0 0 0 0)
(-2.71051e-14 -6.85624e-14 0 -2.71051e-14 7.43606e-14 0 0 0 0)
(0 2.56826e-14 0 -2.71051e-14 -1.00338e-14 0 0 0 0)
(0 -2.70088e-15 0 -2.71051e-14 -8.85088e-15 0 0 0 0)
(2.71051e-14 -2.18339e-14 0 2.71051e-14 -2.22341e-14 0 0 0 0)
(-2.71051e-14 -2.59269e-14 0 2.71051e-14 -1.79636e-14 0 0 0 0)
(2.71051e-14 -6.06119e-15 0 2.71051e-14 -2.63014e-14 0 0 0 0)
(5.42101e-14 2.27033e-15 0 -5.42101e-14 -2.10675e-14 0 0 0 0)
(2.71051e-14 8.57099e-15 0 0 -7.88213e-15 0 0 0 0)
(-2.71051e-14 1.803e-14 0 -8.13152e-14 3.90809e-15 0 0 0 0)
(-5.42101e-14 -3.76276e-15 0 -5.42101e-14 4.60752e-15 0 0 0 0)
(0 -2.65827e-14 0 -2.71051e-14 -3.21931e-15 0 0 0 0)
(0 1.62842e-16 0 -1.0842e-13 -1.06912e-15 0 0 0 0)
(-2.71051e-14 2.36966e-14 0 -1.35525e-13 -1.61916e-15 0 0 0 0)
(8.13152e-14 9.21538e-15 0 -2.71051e-14 -7.07516e-15 0 0 0 0)
(0 -1.22027e-14 0 0 -4.36595e-15 0 0 0 0)
(0 -6.7223e-15 0 -2.71051e-14 2.36985e-15 0 0 0 0)
(2.1684e-13 1.18284e-11 0 9.21572e-13 -7.38395e-12 0 0 0 0)
(-4.06576e-13 -1.43124e-11 0 -3.52366e-13 1.62205e-12 0 0 0 0)
(1.0842e-13 3.12251e-12 0 -8.13152e-14 -3.51757e-13 0 0 0 0)
(-5.42101e-14 -7.08519e-13 0 1.0842e-13 1.08164e-13 0 0 0 0)
(0 1.4996e-13 0 2.71051e-14 1.20194e-15 0 0 0 0)
(5.42101e-14 -6.08453e-14 0 1.0842e-13 6.90974e-15 0 0 0 0)
(-5.42101e-14 -1.93751e-14 0 8.13152e-14 -1.76403e-14 0 0 0 0)
(8.13152e-14 -1.69207e-14 0 5.42101e-14 -3.6082e-14 0 0 0 0)
(0 -9.20636e-15 0 8.13152e-14 -1.89431e-14 0 0 0 0)
(0 -3.66311e-15 0 1.0842e-13 -4.27021e-15 0 0 0 0)
(-2.71051e-14 1.41084e-14 0 5.42101e-14 2.82547e-15 0 0 0 0)
(0 2.12914e-14 0 5.42101e-14 1.79988e-15 0 0 0 0)
(2.71051e-14 9.25798e-15 0 5.42101e-14 -6.36405e-15 0 0 0 0)
(5.42101e-14 -1.1e-14 0 1.0842e-13 -1.9433e-14 0 0 0 0)
(2.71051e-14 -1.37258e-14 0 2.71051e-14 4.50602e-15 0 0 0 0)
(-8.13152e-14 -5.56251e-15 0 5.42101e-14 1.74669e-14 0 0 0 0)
(5.42101e-14 2.21021e-15 0 2.71051e-14 -6.38103e-15 0 0 0 0)
(0 8.93405e-15 0 0 -2.25643e-14 0 0 0 0)
(0 3.49622e-15 0 0 -1.52e-14 0 0 0 0)
(0 1.00411e-15 0 0 -4.31216e-15 0 0 0 0)
(-3.52366e-13 -1.13761e-11 0 -1.6263e-13 -7.02974e-12 0 0 0 0)
(4.06576e-13 1.3858e-11 0 1.0842e-13 1.42115e-12 0 0 0 0)
(0 -3.00075e-12 0 8.13152e-14 -3.57778e-13 0 0 0 0)
(5.42101e-14 7.14923e-13 0 -2.71051e-14 4.15038e-14 0 0 0 0)
(0 -1.69816e-13 0 1.0842e-13 -4.3808e-14 0 0 0 0)
(2.71051e-14 6.84037e-15 0 5.42101e-14 -2.01675e-14 0 0 0 0)
(-2.71051e-14 -4.56926e-14 0 1.35525e-13 -7.3636e-15 0 0 0 0)
(-2.71051e-14 -2.31368e-14 0 1.0842e-13 2.07451e-16 0 0 0 0)
(0 5.88489e-15 0 5.42101e-14 6.07582e-15 0 0 0 0)
(0 1.57074e-14 0 2.71051e-14 2.05051e-14 0 0 0 0)
(0 8.34042e-15 0 5.42101e-14 2.34851e-14 0 0 0 0)
(-2.71051e-14 -6.18532e-16 0 5.42101e-14 1.45908e-14 0 0 0 0)
(2.71051e-14 -3.20279e-15 0 8.13152e-14 8.37928e-15 0 0 0 0)
(-2.71051e-14 7.10731e-15 0 0 8.78269e-15 0 0 0 0)
(-5.42101e-14 1.03173e-14 0 2.71051e-14 1.52366e-14 0 0 0 0)
(0 -1.07242e-14 0 5.42101e-14 1.06879e-14 0 0 0 0)
(-5.42101e-14 -1.63346e-14 0 8.13152e-14 8.44316e-15 0 0 0 0)
(5.42101e-14 3.96449e-16 0 0 1.37146e-15 0 0 0 0)
(0 6.0494e-15 0 2.71051e-14 1.29441e-15 0 0 0 0)
(0 1.27898e-14 0 2.71051e-14 -1.78209e-15 0 0 0 0)
(1.89735e-13 6.21984e-12 0 1.35525e-13 1.53392e-11 0 0 0 0)
(-1.6263e-13 -7.64042e-12 0 -1.35525e-13 -3.35706e-12 0 0 0 0)
(-8.13152e-14 1.74286e-12 0 -8.13152e-14 7.42845e-13 0 0 0 0)
(-2.71051e-14 -3.94549e-13 0 -1.35525e-13 -2.21312e-13 0 0 0 0)
(1.0842e-13 8.82884e-14 0 -1.0842e-13 -1.92331e-14 0 0 0 0)
(2.71051e-14 -2.44009e-14 0 -1.35525e-13 -5.59767e-14 0 0 0 0)
(8.13152e-14 9.99873e-16 0 -1.0842e-13 -2.59697e-14 0 0 0 0)
(0 -3.48128e-15 0 -8.13152e-14 7.15648e-15 0 0 0 0)
(-5.42101e-14 1.10913e-14 0 -5.42101e-14 2.17224e-14 0 0 0 0)
(-2.71051e-14 1.37462e-14 0 -8.13152e-14 1.14482e-14 0 0 0 0)
(0 8.19403e-15 0 -1.0842e-13 -3.46808e-15 0 0 0 0)
(0 6.18553e-15 0 -5.42101e-14 5.19395e-15 0 0 0 0)
(0 3.44992e-15 0 -8.13152e-14 1.01332e-14 0 0 0 0)
(0 -4.14268e-15 0 -5.42101e-14 9.53867e-15 0 0 0 0)
(0 -1.18206e-14 0 0 1.65713e-15 0 0 0 0)
(0 -1.2356e-14 0 0 6.69942e-15 0 0 0 0)
(0 -7.1062e-15 0 0 1.99205e-14 0 0 0 0)
(0 1.7853e-15 0 0 1.88027e-14 0 0 0 0)
(-2.71051e-14 3.42665e-16 0 -2.71051e-14 1.00828e-14 0 0 0 0)
(-2.71051e-14 1.49178e-15 0 0 4.411e-15 0 0 0 0)
(-3.52366e-13 6.06057e-13 0 0 -1.67049e-11 0 0 0 0)
(8.13152e-14 -7.38353e-13 0 8.13152e-14 3.75164e-12 0 0 0 0)
(8.13152e-14 1.34998e-13 0 2.71051e-14 -8.50138e-13 0 0 0 0)
(1.0842e-13 -4.71546e-14 0 1.35525e-13 1.88575e-13 0 0 0 0)
(0 -4.48109e-15 0 0 -6.86849e-14 0 0 0 0)
(0 1.03788e-16 0 0 -1.24606e-14 0 0 0 0)
(0 1.74406e-14 0 -2.71051e-14 -2.01715e-14 0 0 0 0)
(0 2.45553e-14 0 -2.71051e-14 -6.31304e-15 0 0 0 0)
(0 1.01766e-14 0 -8.13152e-14 -4.05756e-16 0 0 0 0)
(0 -9.48304e-15 0 -5.42101e-14 6.87865e-15 0 0 0 0)
(0 2.08617e-15 0 -2.71051e-14 -8.08552e-15 0 0 0 0)
(0 1.29827e-14 0 -5.42101e-14 -1.53387e-14 0 0 0 0)
(2.71051e-14 1.14193e-15 0 -5.42101e-14 -2.13674e-14 0 0 0 0)
(5.42101e-14 -1.36872e-15 0 0 -2.28526e-14 0 0 0 0)
(2.71051e-14 7.47801e-15 0 -2.71051e-14 -1.22935e-14 0 0 0 0)
(-8.13152e-14 7.53912e-15 0 -2.71051e-14 4.31783e-15 0 0 0 0)
(0 -4.2313e-15 0 -2.71051e-14 1.26013e-14 0 0 0 0)
(0 -9.44119e-15 0 2.71051e-14 1.76922e-14 0 0 0 0)
(5.42101e-14 -8.34234e-15 0 0 3.29315e-15 0 0 0 0)
(0 -1.70401e-15 0 -2.71051e-14 -3.39539e-15 0 0 0 0)
(2.71051e-13 -6.73342e-12 0 -4.60786e-13 1.36949e-11 0 0 0 0)
(-8.13152e-14 8.21434e-12 0 2.1684e-13 -2.99701e-12 0 0 0 0)
(-5.42101e-14 -1.8202e-12 0 1.0842e-13 6.97843e-13 0 0 0 0)
(-8.13152e-14 3.86904e-13 0 5.42101e-14 -1.59055e-13 0 0 0 0)
(0 -1.12747e-13 0 1.0842e-13 3.99011e-14 0 0 0 0)
(-2.71051e-14 2.41125e-14 0 5.42101e-14 2.83175e-15 0 0 0 0)
(2.71051e-14 7.14744e-15 0 0 1.07302e-14 0 0 0 0)
(0 1.62844e-14 0 0 1.50972e-14 0 0 0 0)
(-2.71051e-14 2.4283e-14 0 5.42101e-14 1.61662e-14 0 0 0 0)
(0 6.06645e-15 0 8.13152e-14 1.78617e-14 0 0 0 0)
(-8.13152e-14 -1.40233e-14 0 8.13152e-14 1.24547e-14 0 0 0 0)
(5.42101e-14 -7.09633e-15 0 5.42101e-14 -1.30616e-14 0 0 0 0)
(2.71051e-14 -4.06395e-15 0 5.42101e-14 -1.6496e-14 0 0 0 0)
(0 4.93123e-15 0 2.71051e-14 -5.26725e-15 0 0 0 0)
(0 1.53498e-14 0 -2.71051e-14 4.3827e-16 0 0 0 0)
(2.71051e-14 1.25388e-14 0 0 -3.52359e-15 0 0 0 0)
(0 6.26818e-15 0 0 -2.9029e-15 0 0 0 0)
(-2.71051e-14 -7.52285e-15 0 -2.71051e-14 1.22767e-14 0 0 0 0)
(-2.71051e-14 -2.07449e-14 0 0 8.36579e-15 0 0 0 0)
(0 1.59402e-15 0 0 -3.57581e-15 0 0 0 0)
(-5.69206e-13 1.13039e-11 0 1.89735e-12 -1.82834e-12 0 0 0 0)
(6.23416e-13 -1.37354e-11 0 -6.50521e-13 3.48256e-13 0 0 0 0)
(-1.0842e-13 2.97295e-12 0 -5.42101e-14 -1.1259e-13 0 0 0 0)
(1.0842e-13 -7.05096e-13 0 -5.42101e-14 1.72838e-14 0 0 0 0)
(-5.42101e-14 1.57406e-13 0 -1.0842e-13 1.71884e-14 0 0 0 0)
(-5.42101e-14 -2.90671e-14 0 -8.13152e-14 1.77612e-14 0 0 0 0)
(0 2.97061e-14 0 -8.13152e-14 1.36814e-15 0 0 0 0)
(0 2.99913e-14 0 -5.42101e-14 9.92362e-16 0 0 0 0)
(0 1.2941e-14 0 -5.42101e-14 -4.27882e-15 0 0 0 0)
(5.42101e-14 -1.31945e-14 0 -2.71051e-14 -2.67584e-14 0 0 0 0)
(0 -2.88371e-14 0 5.42101e-14 -1.76043e-14 0 0 0 0)
(0 -1.5968e-14 0 2.71051e-14 -6.80598e-15 0 0 0 0)
(0 8.93631e-15 0 2.71051e-14 4.13437e-15 0 0 0 0)
(0 1.55656e-14 0 -2.71051e-14 1.10865e-14 0 0 0 0)
(0 9.22166e-15 0 0 7.33836e-15 0 0 0 0)
(-5.42101e-14 4.19795e-15 0 -2.71051e-14 3.81617e-15 0 0 0 0)
(-2.71051e-14 1.1569e-14 0 -5.42101e-14 2.49767e-15 0 0 0 0)
(2.71051e-14 1.82749e-15 0 -5.42101e-14 -5.82899e-16 0 0 0 0)
(8.13152e-14 -2.41948e-14 0 0 3.05554e-16 0 0 0 0)
(-2.71051e-14 -6.49399e-15 0 2.71051e-14 4.80224e-15 0 0 0 0)
(1.46367e-12 -8.21351e-12 0 -1.43657e-12 -1.63648e-11 0 0 0 0)
(-2.00577e-12 9.93009e-12 0 5.42101e-13 3.56746e-12 0 0 0 0)
(5.96311e-13 -2.15117e-12 0 1.0842e-13 -8.1316e-13 0 0 0 0)
(-1.35525e-13 5.16682e-13 0 5.42101e-14 2.11793e-13 0 0 0 0)
(0 -1.1227e-13 0 8.13152e-14 -2.16601e-14 0 0 0 0)
(0 8.29224e-15 0 8.13152e-14 1.4012e-14 0 0 0 0)
(0 -9.62142e-15 0 8.13152e-14 -9.23595e-15 0 0 0 0)
(2.71051e-14 1.06375e-14 0 8.13152e-14 -2.42977e-14 0 0 0 0)
(5.42101e-14 -3.46783e-15 0 5.42101e-14 -3.54087e-14 0 0 0 0)
(5.42101e-14 -7.25902e-15 0 2.71051e-14 -2.18476e-14 0 0 0 0)
(0 5.92911e-15 0 0 6.91169e-15 0 0 0 0)
(-2.71051e-14 1.46423e-14 0 -8.13152e-14 2.78984e-14 0 0 0 0)
(0 1.38285e-14 0 -8.13152e-14 2.13684e-14 0 0 0 0)
(0 8.13522e-15 0 -5.42101e-14 1.82884e-15 0 0 0 0)
(-2.71051e-14 8.07946e-15 0 -5.42101e-14 -2.14422e-15 0 0 0 0)
(2.71051e-14 7.69812e-15 0 -5.42101e-14 -7.47779e-15 0 0 0 0)
(-2.71051e-14 1.86911e-15 0 0 -2.88915e-15 0 0 0 0)
(0 -9.71497e-15 0 5.42101e-14 -1.83141e-14 0 0 0 0)
(2.71051e-14 -1.53598e-14 0 2.71051e-14 -7.87588e-15 0 0 0 0)
(-2.71051e-14 -3.51377e-15 0 0 8.17658e-15 0 0 0 0)
(-1.46367e-12 -1.49342e-12 0 -2.57498e-12 2.24311e-11 0 0 0 0)
(2.19551e-12 1.81626e-12 0 6.23416e-13 -4.83825e-12 0 0 0 0)
(-6.23416e-13 -3.82718e-13 0 -1.89735e-13 1.17074e-12 0 0 0 0)
(2.71051e-14 8.64037e-14 0 0 -2.33535e-13 0 0 0 0)
(-2.71051e-14 -4.03751e-14 0 -2.71051e-14 5.76182e-14 0 0 0 0)
(-2.71051e-14 -1.66429e-14 0 5.42101e-14 -9.18012e-16 0 0 0 0)
(0 -8.60354e-15 0 0 2.25949e-14 0 0 0 0)
(-2.71051e-14 3.81854e-15 0 -2.71051e-14 1.02238e-14 0 0 0 0)
(-2.71051e-14 1.53911e-14 0 -5.42101e-14 -8.52936e-16 0 0 0 0)
(0 2.91258e-14 0 -8.13152e-14 2.62995e-15 0 0 0 0)
(-8.13152e-14 2.09089e-14 0 -1.0842e-13 1.9289e-14 0 0 0 0)
(-2.71051e-14 -1.51129e-15 0 -2.71051e-14 2.58457e-14 0 0 0 0)
(0 -1.71333e-14 0 0 6.68851e-15 0 0 0 0)
(0 -7.94707e-15 0 0 -5.07276e-15 0 0 0 0)
(0 -8.49635e-17 0 0 1.03211e-15 0 0 0 0)
(0 3.45302e-15 0 -2.71051e-14 -5.89401e-15 0 0 0 0)
(0 7.32716e-16 0 -2.71051e-14 -1.79517e-14 0 0 0 0)
(8.13152e-14 -3.15923e-15 0 -5.42101e-14 -2.79994e-14 0 0 0 0)
(2.71051e-14 2.2958e-15 0 -2.71051e-14 -1.48815e-14 0 0 0 0)
(-2.71051e-14 -6.79469e-15 0 0 1.85636e-15 0 0 0 0)
(-4.87891e-13 9.37932e-12 0 5.3668e-12 -3.40311e-12 0 0 0 0)
(4.06576e-13 -1.13302e-11 0 -1.51788e-12 7.0113e-13 0 0 0 0)
(-1.0842e-13 2.45354e-12 0 8.13152e-14 -1.82505e-13 0 0 0 0)
(1.0842e-13 -5.96441e-13 0 -1.0842e-13 1.99489e-14 0 0 0 0)
(0 1.20348e-13 0 -5.42101e-14 -1.08976e-14 0 0 0 0)
(2.71051e-14 -2.67311e-14 0 -5.42101e-14 1.98069e-14 0 0 0 0)
(-8.13152e-14 1.52042e-15 0 -5.42101e-14 3.12382e-14 0 0 0 0)
(0 -1.28103e-14 0 -8.13152e-14 1.08193e-14 0 0 0 0)
(-5.42101e-14 -1.10617e-14 0 -2.71051e-14 3.65842e-15 0 0 0 0)
(5.42101e-14 1.28829e-14 0 -2.71051e-14 -1.59081e-14 0 0 0 0)
(5.42101e-14 2.91449e-14 0 -2.71051e-14 -3.17005e-14 0 0 0 0)
(8.13152e-14 2.04189e-15 0 2.71051e-14 -3.25265e-14 0 0 0 0)
(0 -1.70899e-14 0 5.42101e-14 -1.70673e-14 0 0 0 0)
(0 2.47882e-15 0 5.42101e-14 3.0946e-15 0 0 0 0)
(0 7.25821e-15 0 0 -2.02341e-15 0 0 0 0)
(-5.42101e-14 -1.12857e-14 0 8.13152e-14 1.10613e-15 0 0 0 0)
(0 -2.02363e-14 0 8.13152e-14 -1.18045e-14 0 0 0 0)
(-2.71051e-14 -6.64477e-15 0 0 -1.09236e-14 0 0 0 0)
(8.13152e-14 1.4496e-14 0 0 -7.93595e-15 0 0 0 0)
(0 9.51139e-15 0 0 -1.70692e-15 0 0 0 0)
(2.38524e-12 -4.19539e-12 0 -1.02999e-12 -1.94647e-11 0 0 0 0)
(-3.08998e-12 5.03686e-12 0 3.79471e-13 4.18635e-12 0 0 0 0)
(8.13152e-13 -1.0639e-12 0 1.6263e-13 -1.02399e-12 0 0 0 0)
(-8.13152e-14 2.58011e-13 0 1.0842e-13 1.99926e-13 0 0 0 0)
(0 -4.05171e-14 0 1.35525e-13 -4.92479e-14 0 0 0 0)
(0 2.54929e-14 0 5.42101e-14 9.89044e-15 0 0 0 0)
(-2.71051e-14 -1.75911e-14 0 1.0842e-13 -6.75577e-17 0 0 0 0)
(2.71051e-14 -2.37612e-14 0 1.35525e-13 -1.3838e-15 0 0 0 0)
(-2.71051e-14 -1.13364e-14 0 1.35525e-13 1.12384e-14 0 0 0 0)
(-5.42101e-14 -6.23312e-15 0 1.0842e-13 1.85723e-14 0 0 0 0)
(0 4.29053e-15 0 1.35525e-13 -4.77181e-15 0 0 0 0)
(0 1.3122e-14 0 8.13152e-14 -2.74781e-14 0 0 0 0)
(5.42101e-14 1.84879e-14 0 2.71051e-14 -9.01102e-15 0 0 0 0)
(0 7.09678e-15 0 2.71051e-14 5.99157e-15 0 0 0 0)
(0 -2.07344e-15 0 5.42101e-14 -1.23074e-14 0 0 0 0)
(2.71051e-14 -6.32805e-15 0 5.42101e-14 -1.61764e-14 0 0 0 0)
(-2.71051e-14 -1.1297e-14 0 2.71051e-14 -5.52965e-15 0 0 0 0)
(2.71051e-14 7.09309e-16 0 5.42101e-14 9.77112e-15 0 0 0 0)
(2.71051e-14 1.15124e-14 0 0 1.57723e-14 0 0 0 0)
(-5.42101e-14 2.84818e-15 0 0 3.30169e-15 0 0 0 0)
(-1.0571e-12 -5.89899e-12 0 -1.68051e-12 1.28175e-11 0 0 0 0)
(1.54499e-12 7.11043e-12 0 4.06576e-13 -2.72307e-12 0 0 0 0)
(-3.79471e-13 -1.53288e-12 0 -1.6263e-13 6.70173e-13 0 0 0 0)
(2.71051e-14 3.78305e-13 0 -5.42101e-14 -1.26291e-13 0 0 0 0)
(-2.71051e-14 -6.96877e-14 0 -8.13152e-14 3.38579e-14 0 0 0 0)
(-2.71051e-14 2.24493e-14 0 -5.42101e-14 -1.60861e-14 0 0 0 0)
(5.42101e-14 -9.75382e-15 0 -5.42101e-14 -1.40843e-14 0 0 0 0)
(-2.71051e-14 -1.50434e-15 0 -5.42101e-14 1.12588e-14 0 0 0 0)
(-2.71051e-14 8.89442e-15 0 -5.42101e-14 1.11813e-14 0 0 0 0)
(2.71051e-14 -3.12738e-15 0 -2.71051e-14 1.37008e-14 0 0 0 0)
(0 -1.69056e-14 0 -5.42101e-14 2.05418e-14 0 0 0 0)
(-5.42101e-14 -2.19731e-15 0 -2.71051e-14 2.63158e-14 0 0 0 0)
(-2.71051e-14 1.63798e-14 0 -2.71051e-14 9.6171e-15 0 0 0 0)
(2.71051e-14 -8.17605e-16 0 -2.71051e-14 -8.55179e-15 0 0 0 0)
(0 -1.49098e-14 0 0 3.33792e-15 0 0 0 0)
(-2.71051e-14 -4.50792e-15 0 -5.42101e-14 8.43141e-15 0 0 0 0)
(-2.71051e-14 5.71123e-15 0 -2.71051e-14 1.41739e-14 0 0 0 0)
(-5.42101e-14 1.46571e-14 0 0 1.40172e-14 0 0 0 0)
(5.42101e-14 8.02654e-15 0 0 -1.19254e-15 0 0 0 0)
(0 -9.56255e-15 0 -2.71051e-14 -5.52183e-15 0 0 0 0)
)
;

boundaryField
{
    movingWall
    {
        type            extrapolatedCalculated;
        value           nonuniform List<tensor> 
20
(
(-1.0571e-12 -5.89899e-12 0 6.03961e-12 3.00317e-11 0 0 0 0)
(1.54499e-12 7.11043e-12 0 -1.77636e-12 -6.43569e-12 0 0 0 0)
(-3.79471e-13 -1.53288e-12 0 -2.22045e-13 1.58996e-12 0 0 0 0)
(2.71051e-14 3.78305e-13 0 -2.66454e-13 -3.04164e-13 0 0 0 0)
(-2.71051e-14 -6.96877e-14 0 -2.66454e-13 7.6742e-14 0 0 0 0)
(-2.71051e-14 2.24493e-14 0 -1.77636e-13 -2.54136e-14 0 0 0 0)
(5.42101e-14 -9.75382e-15 0 -2.22045e-13 -1.30552e-14 0 0 0 0)
(-2.71051e-14 -1.50434e-15 0 -2.66454e-13 1.36016e-14 0 0 0 0)
(-2.71051e-14 8.89442e-15 0 -2.22045e-13 -7.03781e-15 0 0 0 0)
(2.71051e-14 -3.12738e-15 0 -1.77636e-13 -2.1976e-14 0 0 0 0)
(0 -1.69056e-14 0 -2.66454e-13 5.47172e-15 0 0 0 0)
(-5.42101e-14 -2.19731e-15 0 -1.77636e-13 4.56463e-14 0 0 0 0)
(-2.71051e-14 1.63798e-14 0 -8.88178e-14 1.4261e-14 0 0 0 0)
(2.71051e-14 -8.17605e-16 0 -4.44089e-14 -1.98727e-14 0 0 0 0)
(0 -1.49098e-14 0 -8.88178e-14 1.75314e-14 0 0 0 0)
(-2.71051e-14 -4.50792e-15 0 -8.88178e-14 3.97663e-14 0 0 0 0)
(-2.71051e-14 5.71123e-15 0 -4.44089e-14 3.55631e-14 0 0 0 0)
(-5.42101e-14 1.46571e-14 0 0 1.69214e-14 0 0 0 0)
(5.42101e-14 8.02654e-15 0 8.88178e-14 -2.30655e-14 0 0 0 0)
(0 -9.56255e-15 0 -4.44089e-14 -1.51847e-14 0 0 0 0)
)
;
    }
    fixedWalls
    {
        type            extrapolatedCalculated;
        value           nonuniform List<tensor> 
60
(
(-4.17444e-12 6.5605e-11 0 1.21973e-12 1.68508e-11 0 0 0 0)
(9.05942e-12 1.79829e-12 0 0 -3.04293e-11 0 0 0 0)
(-4.17444e-12 -5.61123e-11 0 -4.33681e-12 1.15384e-11 0 0 0 0)
(-8.17124e-12 4.7952e-11 0 4.17418e-12 1.26275e-11 0 0 0 0)
(1.24789e-11 -5.60228e-12 0 0 -2.29704e-11 0 0 0 0)
(-8.17124e-12 -4.39296e-11 0 -2.60209e-12 1.75644e-11 0 0 0 0)
(1.90958e-12 6.46552e-11 0 3.44234e-12 4.37494e-12 0 0 0 0)
(5.63993e-12 -2.64298e-11 0 -1.81604e-12 -2.33556e-11 0 0 0 0)
(-5.32907e-12 -2.87672e-11 0 -1.0571e-12 2.16961e-11 0 0 0 0)
(1.37668e-12 6.03546e-11 0 9.21572e-13 -7.38395e-12 0 0 0 0)
(-1.59872e-12 -5.8303e-11 0 -1.6263e-13 -7.02974e-12 0 0 0 0)
(7.99361e-13 3.22356e-11 0 1.35525e-13 1.53392e-11 0 0 0 0)
(-1.06581e-12 3.05397e-12 0 0 -1.67049e-11 0 0 0 0)
(7.10543e-13 -3.45839e-11 0 -4.60786e-13 1.36949e-11 0 0 0 0)
(-2.84217e-12 5.78334e-11 0 1.89735e-12 -1.82834e-12 0 0 0 0)
(8.26006e-12 -4.18973e-11 0 -1.43657e-12 -1.63648e-11 0 0 0 0)
(-8.70415e-12 -7.62575e-12 0 -2.57498e-12 2.24311e-11 0 0 0 0)
(-1.95399e-12 4.7827e-11 0 5.3668e-12 -3.40311e-12 0 0 0 0)
(1.27898e-11 -2.12382e-11 0 -1.02999e-12 -1.94647e-11 0 0 0 0)
(-6.03961e-12 -3.00317e-11 0 -1.68051e-12 1.28175e-11 0 0 0 0)
(0 -2.18037e-14 0 0 3.22009e-15 0 0 0 0)
(0 8.92333e-15 0 0 -2.32899e-14 0 0 0 0)
(0 7.13559e-14 0 0 -1.47035e-14 0 0 0 0)
(0 6.77372e-14 0 2.71051e-14 6.32573e-15 0 0 0 0)
(-8.88178e-14 4.6053e-14 0 2.71051e-14 1.36383e-14 0 0 0 0)
(-8.88178e-14 1.31841e-14 0 -2.71051e-14 1.02821e-14 0 0 0 0)
(0 4.92465e-15 0 -2.71051e-14 -6.04451e-17 0 0 0 0)
(-4.44089e-14 1.34259e-14 0 2.71051e-14 -3.58884e-17 0 0 0 0)
(0 5.06821e-15 0 -2.71051e-14 2.36985e-15 0 0 0 0)
(0 3.94648e-15 0 0 -4.31216e-15 0 0 0 0)
(-4.44089e-14 2.23168e-14 0 2.71051e-14 -1.78209e-15 0 0 0 0)
(-4.44089e-14 1.10748e-14 0 0 4.411e-15 0 0 0 0)
(0 4.67285e-15 0 -2.71051e-14 -3.39539e-15 0 0 0 0)
(0 2.46564e-14 0 0 -3.57581e-15 0 0 0 0)
(-4.44089e-14 1.89761e-14 0 2.71051e-14 4.80224e-15 0 0 0 0)
(-4.44089e-14 5.44746e-15 0 0 8.17658e-15 0 0 0 0)
(-4.44089e-14 -1.37303e-14 0 0 1.85636e-15 0 0 0 0)
(0 -1.97799e-15 0 0 -1.70692e-15 0 0 0 0)
(-8.88178e-14 -6.90257e-15 0 0 3.30169e-15 0 0 0 0)
(-4.44089e-14 -1.51847e-14 0 -2.71051e-14 -5.52183e-15 0 0 0 0)
(-5.69206e-13 1.2949e-11 0 -4.17444e-12 6.5605e-11 0 0 0 0)
(1.16552e-12 -1.55671e-11 0 1.95399e-12 -1.38089e-11 0 0 0 0)
(-4.06576e-13 3.29503e-12 0 4.44089e-13 3.33643e-12 0 0 0 0)
(-2.71051e-14 -7.74038e-13 0 3.10862e-13 -6.28785e-13 0 0 0 0)
(-2.71051e-14 1.68854e-13 0 3.10862e-13 2.40283e-13 0 0 0 0)
(-2.71051e-14 -4.35639e-14 0 2.22045e-13 4.66304e-14 0 0 0 0)
(0 7.65436e-16 0 2.22045e-13 6.60274e-14 0 0 0 0)
(-2.71051e-14 -3.43437e-15 0 2.22045e-13 4.96922e-14 0 0 0 0)
(-2.71051e-14 1.56964e-15 0 1.33227e-13 5.22899e-14 0 0 0 0)
(0 -5.00976e-15 0 4.44089e-14 5.59707e-14 0 0 0 0)
(0 -8.79789e-15 0 1.77636e-13 3.22508e-14 0 0 0 0)
(-5.42101e-14 -3.22799e-15 0 8.88178e-14 2.07792e-14 0 0 0 0)
(-5.42101e-14 -6.20554e-15 0 -8.88178e-14 1.93389e-14 0 0 0 0)
(0 -1.02391e-14 0 -8.88178e-14 -4.04299e-15 0 0 0 0)
(0 -7.82248e-15 0 -8.88178e-14 -2.16177e-14 0 0 0 0)
(0 -7.31374e-15 0 -8.88178e-14 -3.53329e-14 0 0 0 0)
(8.13152e-14 8.40384e-15 0 0 -5.08726e-14 0 0 0 0)
(2.71051e-14 2.34718e-14 0 1.33227e-13 -1.71755e-15 0 0 0 0)
(-5.42101e-14 5.88031e-15 0 4.44089e-14 4.30145e-14 0 0 0 0)
(0 -1.62046e-14 0 0 2.18037e-14 0 0 0 0)
)
;
    }
    frontAndBack
    {
        type            empty;
    }
}


// ************************************************************************* //
