/*--------------------------------*- C++ -*----------------------------------*\
| =========                 |                                                 |
| \\      /  F ield         | OpenFOAM: The Open Source CFD Toolbox           |
|  \\    /   O peration     | Version:  2506                                  |
|   \\  /    A nd           | Website:  www.openfoam.com                      |
|    \\/     M anipulation  |                                                 |
\*---------------------------------------------------------------------------*/
FoamFile
{
    version     2.0;
    format      ascii;
    arch        "LSB;label=32;scalar=64";
    class       volVectorField;
    location    "7.125";
    object      LambVectorField;
}
// * * * * * * * * * * * * * * * * * * * * * * * * * * * * * * * * * * * * * //

dimensions      [0 1 -2 0 0 0 0];

internalField   nonuniform List<vector> 
400
(
(-1.92375e-24 -1.17293e-11 0)
(-5.29928e-25 1.53503e-11 -0)
(-2.7032e-26 -3.24082e-12 0)
(-1.25937e-27 8.01143e-13 -0)
(-5.25852e-29 -8.75388e-14 0)
(1.13981e-29 9.77741e-14 0)
(8.82203e-30 5.34447e-14 0)
(1.05285e-29 8.47495e-14 0)
(3.33811e-30 2.55354e-14 0)
(4.49373e-30 3.21148e-14 0)
(7.26556e-30 9.01131e-14 0)
(2.98379e-30 5.74381e-14 0)
(3.00021e-31 6.20554e-15 0)
(-1.03492e-31 1.02391e-14 -0)
(-4.22759e-31 7.82248e-15 -0)
(4.14246e-30 -4.68964e-14 -0)
(1.06881e-30 -8.40384e-15 -0)
(1.00785e-31 -2.34718e-14 -0)
(-6.4619e-30 -6.00904e-14 0)
(8.83298e-31 1.62046e-14 0)
(-2.11473e-27 -4.70385e-13 0)
(6.47381e-29 3.11077e-13 0)
(-2.81647e-29 -9.36452e-14 0)
(1.82678e-30 3.02652e-14 0)
(-9.9798e-33 5.27522e-15 -0)
(-5.1024e-33 -6.70767e-16 0)
(-1.03552e-32 -2.15024e-15 0)
(-5.87413e-31 -2.01796e-14 0)
(9.37362e-31 -1.45466e-14 -0)
(1.36637e-30 -1.41629e-14 -0)
(-5.00076e-30 -6.47843e-14 0)
(-2.15146e-29 -7.67509e-14 0)
(5.52021e-30 1.82427e-14 0)
(8.60167e-30 8.78702e-14 0)
(-2.46737e-30 7.25642e-14 -0)
(-7.83509e-30 9.14776e-14 -0)
(8.26829e-31 -6.09633e-15 -0)
(1.7582e-30 -7.12197e-14 -0)
(-8.19902e-33 -2.37867e-16 0)
(-2.71284e-32 1.21606e-15 -0)
(-9.30841e-25 6.63556e-12 -0)
(-3.7103e-25 -1.21422e-11 0)
(-2.02236e-26 2.91711e-12 -0)
(-8.2361e-28 -5.94231e-13 0)
(-4.39991e-29 9.81388e-14 -0)
(-1.56609e-29 -1.17247e-13 0)
(-1.05532e-29 -5.79753e-14 0)
(-5.83419e-30 -3.40735e-14 0)
(-4.30835e-31 2.22813e-14 -0)
(2.38381e-30 -4.62068e-14 -0)
(-1.38113e-29 -8.04477e-14 0)
(2.05017e-30 9.72633e-15 0)
(3.89134e-30 5.22904e-14 0)
(-3.3565e-31 8.17311e-15 -0)
(1.25778e-31 -1.71985e-14 -0)
(-1.98754e-30 -1.51816e-14 0)
(1.57505e-30 1.08998e-14 0)
(1.85404e-30 8.45834e-14 0)
(-1.18214e-29 7.42411e-14 -0)
(6.0228e-30 -3.3762e-14 -0)
(-6.24222e-25 -5.20705e-12 0)
(-2.63406e-25 1.01046e-11 -0)
(-1.5238e-26 -2.39393e-12 0)
(-7.13652e-28 5.42577e-13 -0)
(-6.82368e-29 -1.71705e-13 0)
(-4.91398e-30 -3.75978e-14 0)
(-1.19146e-29 -5.1515e-14 0)
(-3.64293e-30 -3.51134e-14 0)
(-1.99952e-30 -4.95947e-14 0)
(-3.51568e-30 -6.10426e-14 0)
(-5.98792e-30 -5.5116e-14 0)
(-2.81338e-30 -4.22094e-14 0)
(-3.75599e-31 3.30497e-14 -0)
(-2.90468e-31 -4.03054e-14 0)
(-1.55485e-30 -1.28884e-14 0)
(9.28153e-31 6.8201e-15 0)
(3.78868e-30 7.22504e-14 0)
(-2.10709e-30 4.75512e-14 -0)
(-6.02135e-30 3.96081e-14 -0)
(8.52059e-31 -5.03155e-15 -0)
(-1.56951e-26 1.12062e-12 -0)
(-3.53887e-27 -1.26413e-12 0)
(-1.5038e-28 2.72785e-13 -0)
(-1.60447e-29 -4.68238e-14 0)
(1.84726e-29 9.82529e-14 0)
(2.14916e-29 1.24026e-13 0)
(5.09535e-30 1.59463e-13 0)
(-7.39531e-30 1.11897e-13 -0)
(-2.11569e-31 7.51274e-14 -0)
(-4.94851e-31 1.17457e-13 -0)
(-8.19573e-31 8.79485e-15 -0)
(3.61853e-31 -3.92629e-15 -0)
(3.5305e-30 -6.54707e-14 -0)
(-8.86717e-31 -4.33728e-14 0)
(-6.02663e-30 -5.54161e-14 0)
(3.72129e-31 1.14487e-14 0)
(3.10062e-31 -5.4065e-14 -0)
(2.35179e-31 7.57357e-15 0)
(1.01729e-30 -1.24865e-14 -0)
(-8.5713e-31 7.44473e-15 -0)
(-6.54395e-25 5.95858e-12 -0)
(-2.32732e-25 -9.61016e-12 0)
(-1.27751e-26 2.28498e-12 -0)
(-6.76941e-28 -4.95019e-13 0)
(-1.12792e-29 1.14384e-13 -0)
(-6.23859e-30 -2.78927e-14 0)
(-4.88765e-31 -2.71056e-15 0)
(-2.54751e-30 -1.01588e-14 0)
(8.80712e-30 3.12413e-14 0)
(1.0836e-29 5.17459e-14 0)
(5.0055e-30 1.41008e-13 0)
(-1.52677e-29 1.31082e-13 -0)
(-3.19579e-31 1.67212e-15 -0)
(2.39698e-30 -1.7996e-14 -0)
(1.74899e-31 -1.5669e-14 -0)
(-2.05424e-30 -8.74339e-14 0)
(-3.87423e-30 -7.74462e-14 0)
(2.48087e-31 -1.63269e-14 -0)
(-1.02607e-31 1.77652e-15 -0)
(1.1924e-30 -3.61768e-14 -0)
(-1.4922e-24 -9.23176e-12 0)
(-4.99015e-25 1.42997e-11 -0)
(-2.76892e-26 -3.3196e-12 0)
(-1.19776e-27 7.04176e-13 -0)
(-1.22266e-28 -2.51469e-13 0)
(-8.76654e-33 -1.47125e-14 0)
(-6.1149e-30 -6.70253e-14 0)
(-1.47671e-29 -1.14698e-13 0)
(-1.69729e-29 -1.10209e-13 0)
(-7.88913e-30 -5.38018e-14 0)
(-9.6776e-30 -6.45502e-14 0)
(-1.64325e-29 -6.5721e-14 0)
(1.79314e-29 6.76571e-14 0)
(8.74105e-30 7.56383e-14 0)
(3.58845e-30 7.07071e-14 0)
(-6.63697e-30 1.34335e-13 -0)
(-3.24674e-29 1.55794e-13 -0)
(-1.01884e-29 4.04145e-14 -0)
(-2.20238e-31 3.12649e-15 -0)
(4.35592e-31 -3.53805e-14 -0)
(-2.20449e-25 3.33637e-12 -0)
(-8.49533e-26 -5.83853e-12 0)
(-4.24359e-27 1.26584e-12 -0)
(-3.09291e-28 -3.82838e-13 0)
(-2.84117e-31 4.29708e-15 -0)
(-1.70625e-29 -7.65763e-14 0)
(-1.16803e-29 -7.41404e-14 0)
(-2.91519e-30 -1.92971e-14 0)
(-1.74547e-30 -2.19659e-14 0)
(-1.07514e-29 -1.07861e-13 0)
(3.18448e-31 4.31088e-15 0)
(-2.85821e-30 -5.05259e-14 0)
(-8.84009e-31 -2.38734e-14 0)
(-1.22081e-30 -5.03375e-14 0)
(3.23403e-32 -1.90559e-14 -0)
(-4.02823e-31 7.16266e-15 -0)
(6.02446e-31 -8.21625e-15 -0)
(-1.00545e-30 -3.87859e-14 0)
(-9.19973e-31 -2.11563e-14 0)
(-9.43069e-31 2.8097e-14 -0)
(-3.27739e-25 4.55712e-12 -0)
(-1.02124e-25 -6.47348e-12 0)
(-5.63955e-27 1.54107e-12 -0)
(-3.52931e-28 -3.8907e-13 0)
(-1.6519e-30 4.14573e-14 -0)
(-1.1692e-29 -5.27876e-14 0)
(-5.29522e-30 -2.44042e-14 0)
(9.51774e-30 4.8939e-14 0)
(-7.2072e-32 5.30319e-14 -0)
(-2.14873e-30 3.31662e-14 -0)
(3.50014e-30 -5.64804e-14 -0)
(3.60696e-31 -8.57099e-15 -0)
(-2.35835e-30 -9.93452e-14 0)
(-6.97268e-30 -5.04473e-14 0)
(7.25548e-33 -5.22404e-16 -0)
(1.38562e-29 -1.08583e-13 -0)
(1.95209e-30 -1.59222e-13 -0)
(-3.97189e-30 -3.63204e-14 0)
(9.7492e-31 1.22027e-14 0)
(2.5826e-31 -2.03827e-14 -0)
(-1.6457e-24 -1.09069e-11 0)
(-4.55128e-25 1.396e-11 -0)
(-2.48703e-26 -3.20383e-12 0)
(-1.12502e-27 8.16939e-13 -0)
(-8.32324e-29 -1.22855e-13 0)
(2.07314e-29 1.69266e-13 0)
(6.95105e-30 1.0069e-13 0)
(-5.06965e-30 7.11308e-14 -0)
(-9.06781e-30 9.05215e-14 -0)
(-1.83072e-29 1.12083e-13 -0)
(-5.48608e-30 4.01017e-14 -0)
(-7.32513e-31 3.29187e-14 -0)
(3.4213e-30 4.49521e-14 0)
(8.39855e-30 1.1942e-13 0)
(-1.38377e-30 4.08309e-14 -0)
(-4.00061e-30 5.97726e-14 -0)
(-2.22847e-30 2.48948e-14 -0)
(4.00499e-31 -8.93405e-15 -0)
(6.11337e-34 -3.49622e-15 -0)
(9.9067e-33 -1.00411e-15 -0)
(-1.63445e-24 1.12135e-11 -0)
(-4.39937e-25 -1.37496e-11 0)
(-2.21202e-26 3.08207e-12 -0)
(-1.47571e-27 -7.42028e-13 0)
(-7.74234e-30 2.78237e-13 -0)
(1.37651e-29 4.73697e-14 0)
(7.35333e-30 1.81218e-13 0)
(-2.18829e-29 1.31557e-13 -0)
(-9.21999e-30 4.83252e-14 -0)
(-1.22512e-30 1.13976e-14 -0)
(-1.54655e-30 4.58697e-14 -0)
(-1.32053e-30 5.48286e-14 -0)
(-3.37239e-30 8.45179e-14 -0)
(3.98809e-31 -7.10731e-15 -0)
(5.23302e-31 1.67878e-14 0)
(3.05581e-30 6.49343e-14 0)
(-7.42827e-30 9.76498e-14 -0)
(4.61015e-32 -3.96449e-16 -0)
(-1.51824e-30 2.10557e-14 -0)
(-7.98678e-31 1.43152e-14 -0)
(-4.90329e-25 -6.08431e-12 0)
(-1.3802e-25 7.50489e-12 -0)
(-7.634e-27 -1.82418e-12 0)
(-2.49201e-28 2.59023e-13 -0)
(-4.70935e-29 -1.96709e-13 0)
(8.80065e-30 -1.11124e-13 -0)
(5.03546e-31 -1.0942e-13 -0)
(5.38593e-30 -7.78339e-14 -0)
(2.57384e-30 -6.53014e-14 -0)
(-3.96549e-30 -9.50614e-14 0)
(-1.14337e-29 -1.16614e-13 0)
(-7.46824e-30 -6.03956e-14 0)
(-1.35542e-29 -8.47651e-14 0)
(-7.91839e-30 -5.00674e-14 0)
(1.40046e-30 1.18206e-14 0)
(4.936e-31 1.2356e-14 0)
(-3.61262e-32 7.1062e-15 -0)
(5.55475e-32 -1.7853e-15 -0)
(-3.50488e-31 -2.74477e-14 0)
(4.13031e-32 -1.49178e-15 -0)
(-4.6272e-27 -6.06057e-13 0)
(-1.29044e-27 8.19669e-13 -0)
(-2.7123e-29 -1.07893e-13 0)
(-4.09875e-29 1.8268e-13 -0)
(-9.86545e-31 4.48109e-15 -0)
(2.79375e-32 -1.03788e-16 -0)
(9.76082e-30 -4.45456e-14 -0)
(4.896e-30 -5.16603e-14 -0)
(-2.41844e-30 -9.14918e-14 0)
(-3.12784e-31 -4.47271e-14 0)
(1.99659e-30 -2.91912e-14 -0)
(-1.87165e-30 -6.71928e-14 0)
(-3.40028e-30 -5.5352e-14 0)
(5.37554e-32 1.36872e-15 0)
(-1.6511e-30 -3.45831e-14 0)
(-3.95132e-30 -3.46442e-14 0)
(-2.81654e-30 -2.28738e-14 0)
(2.62187e-30 3.65462e-14 0)
(2.3961e-31 8.34234e-15 0)
(2.96739e-31 -2.5401e-14 -0)
(-5.42331e-25 6.27264e-12 -0)
(-1.52957e-25 -7.9975e-12 0)
(-8.32484e-27 1.92862e-12 -0)
(-3.073e-28 -3.32694e-13 0)
(-9.89596e-29 2.21168e-13 -0)
(-6.13397e-30 3.00976e-14 -0)
(1.47464e-30 -7.14744e-15 -0)
(2.15489e-30 -1.62844e-14 -0)
(-1.301e-30 2.99271e-14 -0)
(8.3151e-30 7.52487e-14 0)
(1.63908e-30 9.53385e-14 0)
(-1.82275e-30 6.13064e-14 -0)
(-3.13346e-30 5.82741e-14 -0)
(-1.5604e-30 2.21738e-14 -0)
(1.89295e-31 -4.24549e-14 -0)
(-1.04231e-30 -1.25388e-14 0)
(-7.58007e-31 -6.26818e-15 0)
(-2.85525e-30 -1.95822e-14 0)
(9.4806e-31 2.07449e-14 0)
(9.82573e-32 -1.59402e-15 -0)
(-1.36003e-24 -9.40656e-12 0)
(-4.12754e-25 1.30849e-11 -0)
(-2.18858e-26 -3.02716e-12 0)
(-1.1813e-27 6.50886e-13 -0)
(-4.75439e-29 -2.65826e-13 0)
(1.25845e-29 -5.22481e-14 -0)
(1.24141e-29 -1.11021e-13 -0)
(-4.73208e-30 -8.42014e-14 0)
(-1.26308e-29 -6.71511e-14 0)
(-2.58193e-30 -1.39105e-14 0)
(4.66311e-30 8.30472e-14 0)
(-4.42625e-30 4.30731e-14 -0)
(-1.88102e-30 1.81687e-14 -0)
(5.71714e-31 -4.26706e-14 -0)
(-4.80685e-31 -9.22166e-15 0)
(-2.46725e-30 -3.1303e-14 0)
(-6.19015e-30 -6.57791e-14 0)
(-1.08998e-29 -5.60376e-14 0)
(2.71902e-30 2.41948e-14 0)
(-1.59395e-30 3.3599e-14 -0)
(-7.09839e-25 6.77694e-12 -0)
(-2.12246e-25 -9.38799e-12 0)
(-1.22975e-26 2.25959e-12 -0)
(-5.07105e-28 -4.62472e-13 0)
(-5.33438e-29 1.93585e-13 -0)
(-1.91249e-30 7.30229e-14 -0)
(-1.75176e-29 9.09366e-14 -0)
(-8.65127e-30 7.06777e-14 -0)
(-4.97532e-30 5.76779e-14 -0)
(-5.398e-30 3.43641e-14 -0)
(9.41844e-31 -5.92911e-15 -0)
(9.38384e-30 -9.59575e-14 -0)
(1.18238e-30 -9.51437e-14 -0)
(-2.52459e-30 -6.23453e-14 0)
(-4.2933e-30 -6.22896e-14 0)
(-7.50874e-30 -6.19082e-14 0)
(-2.72715e-31 -1.86911e-15 0)
(8.94819e-30 6.39251e-14 0)
(2.07043e-30 4.24649e-14 0)
(-4.78528e-32 3.51377e-15 -0)
(2.06193e-26 -1.08156e-12 -0)
(-4.92666e-27 -1.19284e-12 0)
(-1.74028e-28 1.92982e-13 -0)
(-2.61811e-29 -8.64037e-14 0)
(-5.00914e-31 1.327e-14 -0)
(-7.13784e-30 7.0853e-14 -0)
(-1.75664e-30 8.60354e-15 -0)
(5.77581e-30 -3.09236e-14 -0)
(1.15532e-29 -6.96012e-14 -0)
(3.6298e-30 -1.10441e-13 -0)
(-1.62007e-29 -1.29329e-13 0)
(-4.5102e-30 -2.55938e-14 0)
(1.8873e-30 1.71333e-14 0)
(3.88621e-32 7.94707e-15 0)
(2.60696e-33 8.49635e-17 0)
(-1.23469e-31 -3.05581e-14 0)
(-1.8154e-30 -2.78378e-14 0)
(-5.80328e-31 -5.10509e-14 0)
(-9.88494e-31 -2.94009e-14 0)
(2.33232e-31 6.79469e-15 0)
(-4.79767e-25 -4.01252e-12 0)
(-2.52907e-25 9.81236e-12 -0)
(-1.48621e-26 -2.37223e-12 0)
(-6.04582e-28 4.88021e-13 -0)
(-5.24762e-29 -1.74558e-13 0)
(9.71945e-31 -2.74791e-14 -0)
(-1.85658e-30 -5.57305e-14 0)
(1.38148e-30 -6.85048e-14 -0)
(1.52075e-30 -1.60433e-14 -0)
(5.22975e-30 -3.99879e-14 -0)
(-1.91468e-30 -5.62499e-14 0)
(4.02679e-30 2.50632e-14 0)
(3.88284e-30 7.13001e-14 0)
(-5.29415e-31 5.17313e-14 -0)
(-5.75184e-31 -7.25821e-15 0)
(5.77349e-30 9.26009e-14 0)
(-3.41327e-30 1.01551e-13 -0)
(-9.30366e-31 6.64477e-15 -0)
(1.45045e-30 -1.4496e-14 -0)
(-4.70336e-32 -9.51139e-15 0)
(-1.68068e-25 3.1654e-12 -0)
(-5.18902e-26 -4.65739e-12 0)
(-3.34454e-27 1.22653e-12 -0)
(-7.51689e-29 -1.4959e-13 0)
(-2.58297e-29 1.76042e-13 -0)
(2.79496e-30 2.87172e-14 0)
(1.3635e-29 1.26011e-13 0)
(-1.25174e-29 1.59286e-13 -0)
(-1.9005e-29 1.46862e-13 -0)
(-2.20075e-29 1.14653e-13 -0)
(-2.51628e-29 1.31235e-13 -0)
(-1.01637e-29 6.81932e-14 -0)
(-5.21501e-31 8.61719e-15 -0)
(7.17019e-31 2.00083e-14 0)
(5.88118e-31 5.62835e-14 0)
(9.14234e-31 6.05382e-14 0)
(-2.02883e-30 3.8402e-14 -0)
(-5.23602e-30 5.35008e-14 -0)
(5.26559e-31 -1.15124e-14 -0)
(-4.91495e-32 -2.84818e-15 0)
(-3.1672e-25 4.21848e-12 -0)
(-1.0786e-25 -6.70385e-12 0)
(-5.44662e-27 1.37025e-12 -0)
(-3.28889e-28 -4.32515e-13 0)
(2.23078e-30 -1.16274e-14 -0)
(-4.87048e-30 -7.66594e-14 0)
(-1.45096e-30 -4.44563e-14 0)
(1.79221e-30 -5.27058e-14 -0)
(-1.11029e-30 -6.31045e-14 0)
(-1.31733e-30 -2.39777e-14 0)
(5.103e-31 -3.73045e-14 -0)
(2.84237e-30 -2.49077e-14 -0)
(1.55034e-30 -4.34848e-14 -0)
(-1.30601e-30 -2.62874e-14 0)
(-6.53472e-31 1.49098e-14 -0)
(4.94119e-30 -4.97022e-14 -0)
(2.91762e-30 -3.28163e-14 -0)
(6.20048e-31 -1.46571e-14 -0)
(-4.62839e-31 -8.02654e-15 0)
(-6.65946e-31 -1.75425e-14 0)
)
;

boundaryField
{
    movingWall
    {
        type            calculated;
        value           nonuniform List<vector> 
20
(
(0 1.19386e-11 -0)
(0 -8.88678e-12 -0)
(0 1.31084e-12 -0)
(0 -6.44758e-13 -0)
(0 -1.96766e-13 -0)
(0 -2.00085e-13 -0)
(0 -2.12291e-13 -0)
(0 -2.64949e-13 -0)
(0 -2.30939e-13 -0)
(0 -1.74508e-13 -0)
(0 -2.49548e-13 -0)
(0 -1.75438e-13 -0)
(0 -1.05198e-13 -0)
(0 -4.35913e-14 -0)
(0 -7.39081e-14 -0)
(0 -8.43099e-14 -0)
(0 -5.01202e-14 -0)
(0 -1.46571e-14 -0)
(0 8.07913e-14 -0)
(0 -3.48464e-14 -0)
)
;
    }
    fixedWalls
    {
        type            calculated;
        value           nonuniform List<vector> 
60
(
(0 -6.43853e-11 -0)
(0 -1.79829e-12 -0)
(0 5.17755e-11 -0)
(0 -4.37779e-11 -0)
(0 5.60228e-12 -0)
(0 4.13275e-11 -0)
(0 -6.12128e-11 -0)
(0 2.46138e-11 -0)
(0 2.77101e-11 -0)
(0 -5.9433e-11 -0)
(0 5.81403e-11 -0)
(0 -3.21001e-11 -0)
(0 -3.05397e-12 -0)
(0 3.41232e-11 -0)
(0 -5.59361e-11 -0)
(0 4.04607e-11 -0)
(0 5.05077e-12 -0)
(0 -4.24602e-11 -0)
(0 2.02082e-11 -0)
(0 2.83512e-11 -0)
(0 2.18037e-14 -0)
(0 -8.92333e-15 -0)
(0 -7.13559e-14 -0)
(0 -4.06322e-14 -0)
(0 -1.8948e-14 -0)
(0 -4.02892e-14 -0)
(0 -3.20297e-14 -0)
(0 1.36792e-14 -0)
(0 -3.21733e-14 -0)
(0 -3.94648e-15 -0)
(0 4.78821e-15 -0)
(0 -1.10748e-14 -0)
(0 -3.17779e-14 -0)
(0 -2.46564e-14 -0)
(0 8.12897e-15 -0)
(0 -5.44746e-15 -0)
(0 1.37303e-14 -0)
(0 1.97799e-15 -0)
(0 6.90257e-15 -0)
(0 -1.19203e-14 -0)
(0 -1.71235e-11 -0)
(0 1.75211e-11 -0)
(0 -2.85095e-12 -0)
(0 1.0849e-12 -0)
(0 1.42009e-13 -0)
(0 2.65609e-13 -0)
(0 2.21279e-13 -0)
(0 2.25479e-13 -0)
(0 1.31657e-13 -0)
(0 4.94187e-14 -0)
(0 1.86434e-13 -0)
(0 9.20458e-14 -0)
(0 -8.26123e-14 -0)
(0 -7.85787e-14 -0)
(0 -8.09954e-14 -0)
(0 -8.15041e-14 -0)
(0 -8.40384e-15 -0)
(0 1.09755e-13 -0)
(0 3.85286e-14 -0)
(0 1.62046e-14 -0)
)
;
    }
    frontAndBack
    {
        type            empty;
    }
}


// ************************************************************************* //
