/*--------------------------------*- C++ -*----------------------------------*\
| =========                 |                                                 |
| \\      /  F ield         | OpenFOAM: The Open Source CFD Toolbox           |
|  \\    /   O peration     | Version:  2506                                  |
|   \\  /    A nd           | Website:  www.openfoam.com                      |
|    \\/     M anipulation  |                                                 |
\*---------------------------------------------------------------------------*/
FoamFile
{
    version     2.0;
    format      ascii;
    arch        "LSB;label=32;scalar=64";
    class       volScalarField;
    location    "7.125";
    object      QField;
}
// * * * * * * * * * * * * * * * * * * * * * * * * * * * * * * * * * * * * * //

dimensions      [0 0 -2 0 0 0 0];

internalField   nonuniform List<scalar> 
400
(
-2.53859e-23
-7.37497e-24
-5.29981e-25
2.50775e-26
-1.53535e-26
2.02501e-27
-4.14944e-29
-1.36361e-28
-2.22215e-28
1.3579e-28
7.15402e-28
-1.62623e-27
-1.90248e-27
0
0
-3.96479e-28
-2.13703e-27
-7.85528e-29
-4.5104e-28
0
-4.86625e-23
-1.52157e-23
-9.53797e-25
1.60352e-26
-8.53031e-27
0
4.59736e-29
-3.15089e-28
-3.40397e-28
-1.03821e-27
1.0213e-27
1.22194e-27
0
1.90863e-27
8.68313e-28
-3.62192e-28
-7.36402e-28
9.22094e-28
-7.23072e-28
-1.26255e-27
-5.47783e-23
-1.8681e-23
-2.30131e-25
-4.26095e-26
-2.31244e-27
3.08358e-27
-4.09734e-28
-1.29391e-27
0
1.00149e-28
1.33709e-27
1.15828e-27
-1.01935e-27
-4.91599e-28
4.19157e-28
-1.20206e-27
-5.09753e-28
1.64654e-27
1.08588e-27
0
-5.90105e-23
-1.96457e-23
-5.29918e-25
-3.51799e-26
-1.25507e-27
-9.00554e-28
-1.46101e-28
-2.32171e-27
-2.05422e-28
2.41975e-28
-2.10468e-27
-2.29284e-27
1.61129e-28
1.9107e-28
-3.14596e-28
5.335e-28
1.63526e-28
5.78948e-28
1.28129e-28
-8.71064e-28
-5.1677e-23
-1.53748e-23
-9.6556e-25
-1.65474e-26
-1.31161e-27
1.69198e-27
3.24411e-27
-2.15329e-29
-5.03156e-28
-2.5466e-28
1.98258e-28
-4.96367e-28
-3.6403e-28
6.03766e-29
-2.91871e-28
-3.05192e-28
-1.32707e-30
0
-6.51744e-28
-9.0256e-28
-4.79841e-23
-1.61389e-23
-4.57955e-25
-4.08522e-26
-8.08266e-28
-4.68069e-28
0
-1.05622e-27
1.12113e-28
6.67891e-28
3.53321e-27
6.01974e-28
-1.72907e-27
0
0
4.97543e-28
-3.14607e-28
-1.8271e-27
2.98912e-29
-3.28066e-29
-4.17313e-23
-1.54226e-23
1.2135e-26
-6.08387e-26
1.38361e-26
-2.13887e-27
6.94712e-28
4.1036e-28
-9.03533e-28
2.75287e-28
4.56526e-28
6.24007e-28
7.28963e-28
7.34861e-28
8.68649e-28
3.24195e-27
2.0783e-27
-6.36409e-28
-9.24357e-28
2.24306e-28
-3.15139e-23
-1.02743e-23
-7.01969e-25
2.48841e-26
-1.74581e-27
3.00868e-27
-1.26509e-27
-3.89809e-28
-1.39296e-28
-6.33684e-28
5.74342e-28
-9.91504e-28
-2.70371e-27
-2.09935e-28
-3.93379e-28
-4.23941e-28
-5.31635e-28
-1.64284e-27
-5.6873e-28
2.78608e-29
-2.59293e-23
-8.79558e-24
-4.01436e-25
2.1656e-26
-3.87393e-27
6.96128e-28
-7.32075e-29
-1.08486e-29
1.18965e-27
-5.48611e-28
-1.019e-27
-2.13646e-28
1.36019e-27
-4.53754e-28
-7.20524e-28
1.76553e-29
3.25538e-27
-3.25534e-28
0
-1.82208e-28
-1.25019e-23
-5.70268e-24
2.1577e-25
7.09542e-26
-4.06467e-27
6.97144e-27
2.53177e-27
-2.01674e-27
7.48616e-28
3.97155e-28
-8.414e-28
-1.15421e-27
-6.74374e-28
1.39162e-28
4.94175e-28
-1.11878e-27
-4.05824e-28
0
0
0
6.26939e-25
-9.24684e-25
2.44007e-25
2.1628e-26
1.84115e-26
-9.17459e-28
6.39209e-27
2.50287e-27
-3.1902e-28
-4.25751e-28
-4.52135e-28
-3.61952e-28
4.87556e-28
-2.38055e-28
-1.10563e-27
5.8136e-28
8.70547e-28
7.43472e-29
-1.63969e-28
-3.46668e-28
2.06745e-24
-4.89509e-25
8.13167e-26
-4.74726e-26
7.48699e-27
-4.8242e-27
-2.00332e-27
-2.83081e-28
-5.76314e-28
8.07472e-28
8.88398e-28
3.35319e-28
2.80531e-28
-2.24575e-28
0
0
0
0
-2.64007e-28
-1.1956e-28
5.88623e-24
3.65104e-25
-7.27882e-26
2.6836e-26
0
0
4.72728e-28
6.65572e-28
8.27512e-28
-5.14077e-28
5.65458e-29
7.03794e-28
-5.1726e-28
-1.23884e-27
-1.30523e-28
-1.46757e-28
-1.1469e-28
2.55904e-28
1.78522e-28
-4.61872e-29
6.09334e-25
-1.5375e-24
1.59516e-25
-8.04054e-27
1.22241e-26
-1.3839e-27
2.90843e-28
0
-1.75457e-27
-4.93294e-28
1.27553e-28
-3.2338e-28
-2.26819e-28
-1.33661e-28
4.16057e-28
-9.55072e-29
0
-5.36668e-28
-2.26755e-28
0
-2.04068e-23
-8.71805e-24
1.73371e-25
-3.63494e-26
1.61342e-26
-3.32643e-27
2.41555e-27
1.62583e-27
7.01535e-28
-1.80822e-27
1.56326e-27
4.32815e-28
-2.42219e-28
4.21906e-28
0
-9.30891e-29
5.59457e-28
8.32692e-29
2.48461e-29
4.58549e-29
-3.5752e-23
-1.25386e-23
-2.51666e-25
-5.67127e-26
9.12925e-27
-6.74285e-28
7.82368e-28
-1.52358e-27
-1.73152e-27
-9.87607e-28
0
4.34456e-28
1.12447e-27
4.41011e-28
4.96108e-28
2.1463e-28
7.83106e-29
5.2665e-28
2.02852e-28
-2.21627e-28
-3.66773e-23
-1.17547e-23
-8.02474e-25
-6.32999e-27
-2.65611e-27
9.27096e-28
0
-1.73616e-28
8.57469e-28
2.36837e-27
6.98464e-28
-7.41513e-28
0
0
0
9.35944e-29
1.98603e-29
-2.44804e-27
-3.41137e-28
-5.03168e-29
-4.86766e-23
-1.69129e-23
-1.79723e-25
-6.25034e-26
6.52406e-27
-9.12227e-28
-2.45771e-27
-1.04167e-27
-4.98151e-28
-5.13191e-28
-9.28517e-28
-2.70024e-27
9.26448e-28
-1.34377e-28
0
8.57737e-28
1.64552e-27
2.96084e-28
-6.45313e-28
0
-5.07492e-23
-1.48471e-23
-6.5964e-25
-4.42306e-26
5.49109e-27
-1.38197e-27
1.90906e-27
3.18274e-27
1.23174e-27
-3.31012e-28
-5.81475e-28
-1.06702e-27
-9.89603e-28
-1.92359e-28
1.12401e-28
-9.54177e-29
4.56087e-28
2.26395e-28
4.27508e-28
-1.78985e-28
-2.34626e-23
-7.09804e-24
-5.03604e-25
1.70848e-26
-6.58439e-27
1.65299e-27
-1.29226e-27
-3.86722e-28
1.79098e-28
2.86592e-28
-9.16454e-28
-1.48614e-27
1.83302e-28
-2.53958e-28
0
-4.72909e-28
-2.29381e-28
-7.59872e-28
-6.46476e-29
-2.59193e-28
)
;

boundaryField
{
    movingWall
    {
        type            calculated;
        value           nonuniform List<scalar> 
20
(
3.88125e-24
2.68759e-24
-9.43712e-25
9.25562e-26
-2.06486e-26
4.67663e-27
-2.8735e-27
-7.6951e-28
2.16572e-27
-1.1512e-27
-4.50455e-27
-2.86481e-27
1.06827e-27
-5.7496e-28
-1.32425e-27
-1.47825e-27
-7.10309e-28
-9.17312e-28
-1.96328e-27
-4.24662e-28
)
;
    }
    fixedWalls
    {
        type            calculated;
        value           nonuniform List<scalar> 
60
(
-1.50363e-22
-2.75672e-22
-2.91515e-22
-3.03343e-22
-2.86646e-22
-2.57831e-22
-2.14211e-22
-1.79721e-22
-1.4603e-22
-6.57864e-23
1.75677e-24
7.89283e-24
1.78043e-23
-6.20501e-24
-1.04534e-22
-1.95362e-22
-2.1488e-22
-2.50028e-22
-2.70824e-22
-1.27881e-22
0
0
0
-1.83602e-27
-2.45959e-27
-5.55877e-28
1.33483e-28
-3.62316e-28
1.37374e-28
0
-5.25759e-28
-1.95888e-28
1.26658e-28
0
-7.2761e-28
-3.63113e-28
-8.24391e-29
0
-2.93249e-28
-1.66365e-28
1.67121e-23
1.43235e-23
-2.8198e-24
2.57662e-25
-5.90032e-26
8.40922e-27
-1.69961e-28
-5.84325e-28
-1.62644e-27
2.22478e-28
1.56282e-27
-8.39739e-28
-1.59953e-27
-9.09418e-28
-6.94776e-28
-6.4959e-28
-4.13671e-27
-3.17362e-27
-2.59296e-27
0
)
;
    }
    frontAndBack
    {
        type            empty;
    }
}


// ************************************************************************* //
