/*--------------------------------*- C++ -*----------------------------------*\
| =========                 |                                                 |
| \\      /  F ield         | OpenFOAM: The Open Source CFD Toolbox           |
|  \\    /   O peration     | Version:  2506                                  |
|   \\  /    A nd           | Website:  www.openfoam.com                      |
|    \\/     M anipulation  |                                                 |
\*---------------------------------------------------------------------------*/
FoamFile
{
    version     2.0;
    format      ascii;
    arch        "LSB;label=32;scalar=64";
    class       volVectorField;
    location    "7.125";
    object      U;
}
// * * * * * * * * * * * * * * * * * * * * * * * * * * * * * * * * * * * * * //

dimensions      [0 1 -1 0 0 0 0];

internalField   nonuniform List<vector> 
400
(
(-1 1.64013e-13 0)
(-1 -3.45223e-14 0)
(-1 8.34108e-15 0)
(-1 -1.57196e-15 0)
(-1 6.00708e-16 0)
(-1 1.16576e-16 0)
(-1 1.65068e-16 0)
(-1 1.2423e-16 0)
(-1 1.30725e-16 0)
(-1 1.39927e-16 0)
(-1 8.06271e-17 0)
(-1 5.1948e-17 0)
(-1 4.83472e-17 0)
(-1 -1.01075e-17 0)
(-1 -5.40441e-17 0)
(-1 -8.83323e-17 0)
(-1 -1.27182e-16 0)
(-1 -4.29389e-18 0)
(-1 1.07536e-16 0)
(-1 5.45093e-17 0)
(-1 4.49574e-15 0)
(-1 2.08109e-16 0)
(-1 3.0076e-16 0)
(-1 6.03591e-17 0)
(-1 -1.89183e-18 0)
(-1 7.60682e-18 0)
(-1 4.81584e-18 0)
(-1 2.91092e-17 0)
(-1 -6.44384e-17 0)
(-1 -9.6475e-17 0)
(-1 7.71909e-17 0)
(-1 2.80318e-16 0)
(-1 3.02598e-16 0)
(-1 9.78906e-17 0)
(-1 -3.40025e-17 0)
(-1 -8.56503e-17 0)
(-1 -1.35627e-16 0)
(-1 -2.4687e-17 0)
(-1 3.4469e-17 0)
(-1 -2.23083e-17 0)
(-1 -1.40281e-13 0)
(-1 3.05571e-14 0)
(-1 -6.93275e-15 0)
(-1 1.38601e-15 0)
(-1 -4.48335e-16 0)
(-1 1.33572e-16 0)
(-1 1.8203e-16 0)
(-1 1.71223e-16 0)
(-1 -1.93361e-17 0)
(-1 -5.159e-17 0)
(-1 1.71681e-16 0)
(-1 2.10786e-16 0)
(-1 7.44178e-17 0)
(-1 -4.10675e-17 0)
(-1 -7.3133e-18 0)
(-1 1.30917e-16 0)
(-1 1.44503e-16 0)
(-1 2.19196e-17 0)
(-1 -1.5923e-16 0)
(-1 -1.7839e-16 0)
(-1 1.1988e-13 0)
(-1 -2.60678e-14 0)
(-1 6.36528e-15 0)
(-1 -1.3153e-15 0)
(-1 3.97407e-16 0)
(-1 1.30698e-16 0)
(-1 2.31284e-16 0)
(-1 1.03748e-16 0)
(-1 4.03172e-17 0)
(-1 5.75939e-17 0)
(-1 1.08642e-16 0)
(-1 6.66529e-17 0)
(-1 -1.13647e-17 0)
(-1 7.20668e-18 0)
(-1 1.20639e-16 0)
(-1 1.36091e-16 0)
(-1 5.24382e-17 0)
(-1 -4.43121e-17 0)
(-1 -1.52023e-16 0)
(-1 -1.69343e-16 0)
(-1 -1.40057e-14 0)
(-1 2.79946e-15 0)
(-1 -5.51278e-16 0)
(-1 3.4266e-16 0)
(-1 1.88011e-16 0)
(-1 1.73283e-16 0)
(-1 3.19533e-17 0)
(-1 -6.60903e-17 0)
(-1 -2.81614e-18 0)
(-1 -4.21303e-18 0)
(-1 -9.31878e-17 0)
(-1 -9.21615e-17 0)
(-1 -5.39249e-17 0)
(-1 2.04441e-17 0)
(-1 1.08752e-16 0)
(-1 3.2504e-17 0)
(-1 -5.73499e-18 0)
(-1 3.10525e-17 0)
(-1 -8.14707e-17 0)
(-1 -1.15133e-16 0)
(-1 -1.09824e-13 0)
(-1 2.42173e-14 0)
(-1 -5.5909e-15 0)
(-1 1.3675e-15 0)
(-1 -9.86083e-17 0)
(-1 2.23664e-16 0)
(-1 1.80319e-16 0)
(-1 2.50769e-16 0)
(-1 2.81906e-16 0)
(-1 2.09407e-16 0)
(-1 3.54979e-17 0)
(-1 -1.16474e-16 0)
(-1 -1.91122e-16 0)
(-1 -1.33195e-16 0)
(-1 -1.11621e-17 0)
(-1 2.34948e-17 0)
(-1 5.00248e-17 0)
(-1 -1.5195e-17 0)
(-1 -5.77571e-17 0)
(-1 -3.29603e-17 0)
(-1 1.61638e-13 0)
(-1 -3.48969e-14 0)
(-1 8.34112e-15 0)
(-1 -1.70094e-15 0)
(-1 4.86209e-16 0)
(-1 5.95856e-19 0)
(-1 9.12327e-17 0)
(-1 1.28748e-16 0)
(-1 1.54007e-16 0)
(-1 1.46633e-16 0)
(-1 1.49924e-16 0)
(-1 2.50034e-16 0)
(-1 2.65033e-16 0)
(-1 1.15564e-16 0)
(-1 5.07509e-17 0)
(-1 -4.94061e-17 0)
(-1 -2.08399e-16 0)
(-1 -2.52097e-16 0)
(-1 -7.04428e-17 0)
(-1 -1.23116e-17 0)
(-1 -6.60745e-14 0)
(-1 1.45505e-14 0)
(-1 -3.3524e-15 0)
(-1 8.07889e-16 0)
(-1 -6.61187e-17 0)
(-1 2.22817e-16 0)
(-1 1.57543e-16 0)
(-1 1.51069e-16 0)
(-1 7.94628e-17 0)
(-1 9.96779e-17 0)
(-1 7.38708e-17 0)
(-1 5.65691e-17 0)
(-1 3.70291e-17 0)
(-1 2.42524e-17 0)
(-1 -1.69713e-18 0)
(-1 -5.62393e-17 0)
(-1 -7.33238e-17 0)
(-1 2.59232e-17 0)
(-1 4.34847e-17 0)
(-1 -3.35647e-17 0)
(-1 -7.19179e-14 0)
(-1 1.57758e-14 0)
(-1 -3.65949e-15 0)
(-1 9.07114e-16 0)
(-1 -3.98458e-17 0)
(-1 2.21491e-16 0)
(-1 2.1698e-16 0)
(-1 1.94482e-16 0)
(-1 -1.35903e-18 0)
(-1 -6.47867e-17 0)
(-1 -6.19709e-17 0)
(-1 -4.20834e-17 0)
(-1 2.3739e-17 0)
(-1 1.38217e-16 0)
(-1 -1.38886e-17 0)
(-1 -1.27609e-16 0)
(-1 -1.22602e-17 0)
(-1 1.09357e-16 0)
(-1 7.98936e-17 0)
(-1 -1.26705e-17 0)
(-1 1.50886e-13 0)
(-1 -3.26023e-14 0)
(-1 7.76268e-15 0)
(-1 -1.37712e-15 0)
(-1 6.77487e-16 0)
(-1 1.22479e-16 0)
(-1 6.9034e-17 0)
(-1 -7.12722e-17 0)
(-1 -1.00173e-16 0)
(-1 -1.63336e-16 0)
(-1 -1.36804e-16 0)
(-1 -2.22522e-17 0)
(-1 7.611e-17 0)
(-1 7.03277e-17 0)
(-1 -3.38903e-17 0)
(-1 -6.69305e-17 0)
(-1 -8.95154e-17 0)
(-1 -4.48284e-17 0)
(-1 -1.74857e-19 0)
(-1 -9.8662e-18 0)
(-1 -1.45757e-13 0)
(-1 3.19963e-14 0)
(-1 -7.17706e-15 0)
(-1 1.98875e-15 0)
(-1 -2.78265e-17 0)
(-1 2.90588e-16 0)
(-1 4.05773e-17 0)
(-1 -1.66338e-16 0)
(-1 -1.90791e-16 0)
(-1 -1.07489e-16 0)
(-1 -3.37162e-17 0)
(-1 -2.40846e-17 0)
(-1 -3.99015e-17 0)
(-1 -5.61125e-17 0)
(-1 3.11716e-17 0)
(-1 4.706e-17 0)
(-1 -7.60705e-17 0)
(-1 -1.16286e-16 0)
(-1 -7.2106e-17 0)
(-1 -5.57921e-17 0)
(-1 8.05891e-14 0)
(-1 -1.83907e-14 0)
(-1 4.18489e-15 0)
(-1 -9.6208e-16 0)
(-1 2.39408e-16 0)
(-1 -7.91964e-17 0)
(-1 -4.60195e-18 0)
(-1 -6.91977e-17 0)
(-1 -3.94147e-17 0)
(-1 4.17151e-17 0)
(-1 9.80474e-17 0)
(-1 1.23655e-16 0)
(-1 1.59903e-16 0)
(-1 1.58155e-16 0)
(-1 1.18476e-16 0)
(-1 3.99483e-17 0)
(-1 -5.08376e-18 0)
(-1 -3.11137e-17 0)
(-1 1.27693e-17 0)
(-1 -2.76871e-17 0)
(-1 7.63492e-15 0)
(-1 -1.57435e-15 0)
(-1 2.51388e-16 0)
(-1 -2.24368e-16 0)
(-1 -2.20157e-16 0)
(-1 -2.69179e-16 0)
(-1 -2.19119e-16 0)
(-1 -9.47729e-17 0)
(-1 2.64334e-17 0)
(-1 6.99317e-18 0)
(-1 -6.8397e-17 0)
(-1 2.78549e-17 0)
(-1 6.14301e-17 0)
(-1 3.92742e-17 0)
(-1 4.77429e-17 0)
(-1 1.14054e-16 0)
(-1 1.23134e-16 0)
(-1 7.17412e-17 0)
(-1 2.87222e-17 0)
(-1 -1.16821e-17 0)
(-1 -8.64599e-14 0)
(-1 1.91256e-14 0)
(-1 -4.31648e-15 0)
(-1 9.23671e-16 0)
(-1 -4.47442e-16 0)
(-1 -2.03803e-16 0)
(-1 -2.06317e-16 0)
(-1 -1.32328e-16 0)
(-1 -4.34723e-17 0)
(-1 1.10502e-16 0)
(-1 1.71922e-17 0)
(-1 -2.97319e-17 0)
(-1 -5.37711e-17 0)
(-1 -7.03714e-17 0)
(-1 -4.45874e-18 0)
(-1 8.31266e-17 0)
(-1 1.20929e-16 0)
(-1 1.45808e-16 0)
(-1 4.57008e-17 0)
(-1 -6.1641e-17 0)
(-1 1.44584e-13 0)
(-1 -3.15444e-14 0)
(-1 7.22982e-15 0)
(-1 -1.81492e-15 0)
(-1 1.78854e-16 0)
(-1 -2.40861e-16 0)
(-1 -1.11817e-16 0)
(-1 5.61996e-17 0)
(-1 1.88095e-16 0)
(-1 1.8561e-16 0)
(-1 5.61501e-17 0)
(-1 -1.02761e-16 0)
(-1 -1.0353e-16 0)
(-1 -1.33983e-17 0)
(-1 5.21256e-17 0)
(-1 7.88183e-17 0)
(-1 9.41051e-17 0)
(-1 1.94508e-16 0)
(-1 1.1238e-16 0)
(-1 -4.74402e-17 0)
(-1 -1.04743e-13 0)
(-1 2.26082e-14 0)
(-1 -5.44238e-15 0)
(-1 1.09651e-15 0)
(-1 -2.75557e-16 0)
(-1 -2.61903e-17 0)
(-1 -1.92635e-16 0)
(-1 -1.22405e-16 0)
(-1 -8.62605e-17 0)
(-1 -1.57083e-16 0)
(-1 -1.58851e-16 0)
(-1 -9.77916e-17 0)
(-1 -1.24273e-17 0)
(-1 4.04937e-17 0)
(-1 6.89249e-17 0)
(-1 1.21288e-16 0)
(-1 1.45906e-16 0)
(-1 1.39979e-16 0)
(-1 4.87563e-17 0)
(-1 -1.36186e-17 0)
(-1 -1.90644e-14 0)
(-1 4.13019e-15 0)
(-1 -9.01784e-16 0)
(-1 3.03009e-16 0)
(-1 -3.77478e-17 0)
(-1 -1.00742e-16 0)
(-1 -2.04177e-16 0)
(-1 -1.86777e-16 0)
(-1 -1.65991e-16 0)
(-1 -3.28664e-17 0)
(-1 1.25267e-16 0)
(-1 1.76223e-16 0)
(-1 1.10154e-16 0)
(-1 4.89012e-18 0)
(-1 3.06833e-17 0)
(-1 4.04048e-18 0)
(-1 6.52136e-17 0)
(-1 1.13676e-17 0)
(-1 3.36213e-17 0)
(-1 3.43256e-17 0)
(-1 1.19567e-13 0)
(-1 -2.57743e-14 0)
(-1 6.26503e-15 0)
(-1 -1.23885e-15 0)
(-1 3.00624e-16 0)
(-1 -3.53704e-17 0)
(-1 3.33135e-17 0)
(-1 -2.01661e-17 0)
(-1 -9.47898e-17 0)
(-1 -1.30783e-16 0)
(-1 3.40388e-17 0)
(-1 1.60666e-16 0)
(-1 5.44578e-17 0)
(-1 -1.02339e-17 0)
(-1 7.9246e-17 0)
(-1 6.23481e-17 0)
(-1 -3.36112e-17 0)
(-1 -1.40015e-16 0)
(-1 -1.00059e-16 0)
(-1 4.94498e-18 0)
(-1 -5.30954e-14 0)
(-1 1.11415e-14 0)
(-1 -2.72683e-15 0)
(-1 5.02498e-16 0)
(-1 -1.46724e-16 0)
(-1 9.7327e-17 0)
(-1 1.08205e-16 0)
(-1 -7.85842e-17 0)
(-1 -1.29407e-16 0)
(-1 -1.91948e-16 0)
(-1 -1.91739e-16 0)
(-1 -1.49042e-16 0)
(-1 -6.05186e-17 0)
(-1 3.58362e-17 0)
(-1 1.04492e-17 0)
(-1 1.51018e-17 0)
(-1 -5.28313e-17 0)
(-1 -9.7868e-17 0)
(-1 -4.57383e-17 0)
(-1 1.72564e-17 0)
(-1 -7.50792e-14 0)
(-1 1.60892e-14 0)
(-1 -3.9749e-15 0)
(-1 7.60411e-16 0)
(-1 -1.91855e-16 0)
(-1 6.35341e-17 0)
(-1 3.26379e-17 0)
(-1 -3.40041e-17 0)
(-1 1.75945e-17 0)
(-1 5.49401e-17 0)
(-1 -1.36793e-17 0)
(-1 -1.14116e-16 0)
(-1 -3.56524e-17 0)
(-1 4.96818e-17 0)
(-1 -4.38285e-17 0)
(-1 -9.94159e-17 0)
(-1 -8.89077e-17 0)
(-1 -4.23035e-17 0)
(-1 5.76636e-17 0)
(-1 3.79619e-17 0)
)
;

boundaryField
{
    movingWall
    {
        type            fixedValue;
        value           uniform (-1 -0 -0);
    }
    fixedWalls
    {
        type            noSlip;
    }
    frontAndBack
    {
        type            empty;
    }
}


// ************************************************************************* //
