/*--------------------------------*- C++ -*----------------------------------*\
| =========                 |                                                 |
| \\      /  F ield         | OpenFOAM: The Open Source CFD Toolbox           |
|  \\    /   O peration     | Version:  2506                                  |
|   \\  /    A nd           | Website:  www.openfoam.com                      |
|    \\/     M anipulation  |                                                 |
\*---------------------------------------------------------------------------*/
FoamFile
{
    version     2.0;
    format      ascii;
    arch        "LSB;label=32;scalar=64";
    class       volVectorField;
    location    "7.125";
    object      vorticityField;
}
// * * * * * * * * * * * * * * * * * * * * * * * * * * * * * * * * * * * * * //

dimensions      [0 0 -1 0 0 0 0];

internalField   nonuniform List<vector> 
400
(
(0 -0 1.17293e-11)
(0 -0 -1.53503e-11)
(0 -0 3.24082e-12)
(0 -0 -8.01143e-13)
(0 -0 8.75388e-14)
(0 -0 -9.77741e-14)
(0 -0 -5.34447e-14)
(0 -0 -8.47495e-14)
(0 -0 -2.55354e-14)
(0 -0 -3.21148e-14)
(0 -0 -9.01131e-14)
(0 -0 -5.74381e-14)
(0 -0 -6.20554e-15)
(0 -0 -1.02391e-14)
(0 -0 -7.82248e-15)
(0 -0 4.68964e-14)
(0 -0 8.40384e-15)
(0 -0 2.34718e-14)
(0 -0 6.00904e-14)
(0 -0 -1.62046e-14)
(0 -0 4.70385e-13)
(0 -0 -3.11077e-13)
(0 -0 9.36452e-14)
(0 -0 -3.02652e-14)
(0 -0 -5.27522e-15)
(0 -0 6.70767e-16)
(0 -0 2.15024e-15)
(0 -0 2.01796e-14)
(0 -0 1.45466e-14)
(0 -0 1.41629e-14)
(0 -0 6.47843e-14)
(0 -0 7.67509e-14)
(0 -0 -1.82427e-14)
(0 -0 -8.78702e-14)
(0 -0 -7.25642e-14)
(0 -0 -9.14776e-14)
(0 -0 6.09633e-15)
(0 -0 7.12197e-14)
(0 -0 2.37867e-16)
(0 -0 -1.21606e-15)
(0 -0 -6.63556e-12)
(0 -0 1.21422e-11)
(0 -0 -2.91711e-12)
(0 -0 5.94231e-13)
(0 -0 -9.81388e-14)
(0 -0 1.17247e-13)
(0 -0 5.79753e-14)
(0 -0 3.40735e-14)
(0 -0 -2.22813e-14)
(0 -0 4.62068e-14)
(0 -0 8.04477e-14)
(0 -0 -9.72633e-15)
(0 -0 -5.22904e-14)
(0 -0 -8.17311e-15)
(0 -0 1.71985e-14)
(0 -0 1.51816e-14)
(0 -0 -1.08998e-14)
(0 -0 -8.45834e-14)
(0 -0 -7.42411e-14)
(0 -0 3.3762e-14)
(0 -0 5.20705e-12)
(0 -0 -1.01046e-11)
(0 -0 2.39393e-12)
(0 -0 -5.42577e-13)
(0 -0 1.71705e-13)
(0 -0 3.75978e-14)
(0 -0 5.1515e-14)
(0 -0 3.51134e-14)
(0 -0 4.95947e-14)
(0 -0 6.10426e-14)
(0 -0 5.5116e-14)
(0 -0 4.22094e-14)
(0 -0 -3.30497e-14)
(0 -0 4.03054e-14)
(0 -0 1.28884e-14)
(0 -0 -6.8201e-15)
(0 -0 -7.22504e-14)
(0 -0 -4.75512e-14)
(0 -0 -3.96081e-14)
(0 -0 5.03155e-15)
(0 -0 -1.12062e-12)
(0 -0 1.26413e-12)
(0 -0 -2.72785e-13)
(0 -0 4.68238e-14)
(0 -0 -9.82529e-14)
(0 -0 -1.24026e-13)
(0 -0 -1.59463e-13)
(0 -0 -1.11897e-13)
(0 -0 -7.51274e-14)
(0 -0 -1.17457e-13)
(0 -0 -8.79485e-15)
(0 -0 3.92629e-15)
(0 -0 6.54707e-14)
(0 -0 4.33728e-14)
(0 -0 5.54161e-14)
(0 -0 -1.14487e-14)
(0 -0 5.4065e-14)
(0 -0 -7.57357e-15)
(0 -0 1.24865e-14)
(0 -0 -7.44473e-15)
(0 -0 -5.95858e-12)
(0 -0 9.61016e-12)
(0 -0 -2.28498e-12)
(0 -0 4.95019e-13)
(0 -0 -1.14384e-13)
(0 -0 2.78927e-14)
(0 -0 2.71056e-15)
(0 -0 1.01588e-14)
(0 -0 -3.12413e-14)
(0 -0 -5.17459e-14)
(0 -0 -1.41008e-13)
(0 -0 -1.31082e-13)
(0 -0 -1.67212e-15)
(0 -0 1.7996e-14)
(0 -0 1.5669e-14)
(0 -0 8.74339e-14)
(0 -0 7.74462e-14)
(0 -0 1.63269e-14)
(0 -0 -1.77652e-15)
(0 -0 3.61768e-14)
(0 -0 9.23176e-12)
(0 -0 -1.42997e-11)
(0 -0 3.3196e-12)
(0 -0 -7.04176e-13)
(0 -0 2.51469e-13)
(0 -0 1.47125e-14)
(0 -0 6.70253e-14)
(0 -0 1.14698e-13)
(0 -0 1.10209e-13)
(0 -0 5.38018e-14)
(0 -0 6.45502e-14)
(0 -0 6.5721e-14)
(0 -0 -6.76571e-14)
(0 -0 -7.56383e-14)
(0 -0 -7.07071e-14)
(0 -0 -1.34335e-13)
(0 -0 -1.55794e-13)
(0 -0 -4.04145e-14)
(0 -0 -3.12649e-15)
(0 -0 3.53805e-14)
(0 -0 -3.33637e-12)
(0 -0 5.83853e-12)
(0 -0 -1.26584e-12)
(0 -0 3.82838e-13)
(0 -0 -4.29708e-15)
(0 -0 7.65763e-14)
(0 -0 7.41404e-14)
(0 -0 1.92971e-14)
(0 -0 2.19659e-14)
(0 -0 1.07861e-13)
(0 -0 -4.31088e-15)
(0 -0 5.05259e-14)
(0 -0 2.38734e-14)
(0 -0 5.03375e-14)
(0 -0 1.90559e-14)
(0 -0 -7.16266e-15)
(0 -0 8.21625e-15)
(0 -0 3.87859e-14)
(0 -0 2.11563e-14)
(0 -0 -2.8097e-14)
(0 -0 -4.55712e-12)
(0 -0 6.47348e-12)
(0 -0 -1.54107e-12)
(0 -0 3.8907e-13)
(0 -0 -4.14573e-14)
(0 -0 5.27876e-14)
(0 -0 2.44042e-14)
(0 -0 -4.8939e-14)
(0 -0 -5.30319e-14)
(0 -0 -3.31662e-14)
(0 -0 5.64804e-14)
(0 -0 8.57099e-15)
(0 -0 9.93452e-14)
(0 -0 5.04473e-14)
(0 -0 5.22404e-16)
(0 -0 1.08583e-13)
(0 -0 1.59222e-13)
(0 -0 3.63204e-14)
(0 -0 -1.22027e-14)
(0 -0 2.03827e-14)
(0 -0 1.09069e-11)
(0 -0 -1.396e-11)
(0 -0 3.20383e-12)
(0 -0 -8.16939e-13)
(0 -0 1.22855e-13)
(0 -0 -1.69266e-13)
(0 -0 -1.0069e-13)
(0 -0 -7.11308e-14)
(0 -0 -9.05215e-14)
(0 -0 -1.12083e-13)
(0 -0 -4.01017e-14)
(0 -0 -3.29187e-14)
(0 -0 -4.49521e-14)
(0 -0 -1.1942e-13)
(0 -0 -4.08309e-14)
(0 -0 -5.97726e-14)
(0 -0 -2.48948e-14)
(0 -0 8.93405e-15)
(0 -0 3.49622e-15)
(0 -0 1.00411e-15)
(0 -0 -1.12135e-11)
(0 -0 1.37496e-11)
(0 -0 -3.08207e-12)
(0 -0 7.42028e-13)
(0 -0 -2.78237e-13)
(0 -0 -4.73697e-14)
(0 -0 -1.81218e-13)
(0 -0 -1.31557e-13)
(0 -0 -4.83252e-14)
(0 -0 -1.13976e-14)
(0 -0 -4.58697e-14)
(0 -0 -5.48286e-14)
(0 -0 -8.45179e-14)
(0 -0 7.10731e-15)
(0 -0 -1.67878e-14)
(0 -0 -6.49343e-14)
(0 -0 -9.76498e-14)
(0 -0 3.96449e-16)
(0 -0 -2.10557e-14)
(0 -0 -1.43152e-14)
(0 -0 6.08431e-12)
(0 -0 -7.50489e-12)
(0 -0 1.82418e-12)
(0 -0 -2.59023e-13)
(0 -0 1.96709e-13)
(0 -0 1.11124e-13)
(0 -0 1.0942e-13)
(0 -0 7.78339e-14)
(0 -0 6.53014e-14)
(0 -0 9.50614e-14)
(0 -0 1.16614e-13)
(0 -0 6.03956e-14)
(0 -0 8.47651e-14)
(0 -0 5.00674e-14)
(0 -0 -1.18206e-14)
(0 -0 -1.2356e-14)
(0 -0 -7.1062e-15)
(0 -0 1.7853e-15)
(0 -0 2.74477e-14)
(0 -0 1.49178e-15)
(0 -0 6.06057e-13)
(0 -0 -8.19669e-13)
(0 -0 1.07893e-13)
(0 -0 -1.8268e-13)
(0 -0 -4.48109e-15)
(0 -0 1.03788e-16)
(0 -0 4.45456e-14)
(0 -0 5.16603e-14)
(0 -0 9.14918e-14)
(0 -0 4.47271e-14)
(0 -0 2.91912e-14)
(0 -0 6.71928e-14)
(0 -0 5.5352e-14)
(0 -0 -1.36872e-15)
(0 -0 3.45831e-14)
(0 -0 3.46442e-14)
(0 -0 2.28738e-14)
(0 -0 -3.65462e-14)
(0 -0 -8.34234e-15)
(0 -0 2.5401e-14)
(0 -0 -6.27264e-12)
(0 -0 7.9975e-12)
(0 -0 -1.92862e-12)
(0 -0 3.32694e-13)
(0 -0 -2.21168e-13)
(0 -0 -3.00976e-14)
(0 -0 7.14744e-15)
(0 -0 1.62844e-14)
(0 -0 -2.99271e-14)
(0 -0 -7.52487e-14)
(0 -0 -9.53385e-14)
(0 -0 -6.13064e-14)
(0 -0 -5.82741e-14)
(0 -0 -2.21738e-14)
(0 -0 4.24549e-14)
(0 -0 1.25388e-14)
(0 -0 6.26818e-15)
(0 -0 1.95822e-14)
(0 -0 -2.07449e-14)
(0 -0 1.59402e-15)
(0 -0 9.40656e-12)
(0 -0 -1.30849e-11)
(0 -0 3.02716e-12)
(0 -0 -6.50886e-13)
(0 -0 2.65826e-13)
(0 -0 5.22481e-14)
(0 -0 1.11021e-13)
(0 -0 8.42014e-14)
(0 -0 6.71511e-14)
(0 -0 1.39105e-14)
(0 -0 -8.30472e-14)
(0 -0 -4.30731e-14)
(0 -0 -1.81687e-14)
(0 -0 4.26706e-14)
(0 -0 9.22166e-15)
(0 -0 3.1303e-14)
(0 -0 6.57791e-14)
(0 -0 5.60376e-14)
(0 -0 -2.41948e-14)
(0 -0 -3.3599e-14)
(0 -0 -6.77694e-12)
(0 -0 9.38799e-12)
(0 -0 -2.25959e-12)
(0 -0 4.62472e-13)
(0 -0 -1.93585e-13)
(0 -0 -7.30229e-14)
(0 -0 -9.09366e-14)
(0 -0 -7.06777e-14)
(0 -0 -5.76779e-14)
(0 -0 -3.43641e-14)
(0 -0 5.92911e-15)
(0 -0 9.59575e-14)
(0 -0 9.51437e-14)
(0 -0 6.23453e-14)
(0 -0 6.22896e-14)
(0 -0 6.19082e-14)
(0 -0 1.86911e-15)
(0 -0 -6.39251e-14)
(0 -0 -4.24649e-14)
(0 -0 -3.51377e-15)
(0 -0 1.08156e-12)
(0 -0 1.19284e-12)
(0 -0 -1.92982e-13)
(0 -0 8.64037e-14)
(0 -0 -1.327e-14)
(0 -0 -7.0853e-14)
(0 -0 -8.60354e-15)
(0 -0 3.09236e-14)
(0 -0 6.96012e-14)
(0 -0 1.10441e-13)
(0 -0 1.29329e-13)
(0 -0 2.55938e-14)
(0 -0 -1.71333e-14)
(0 -0 -7.94707e-15)
(0 -0 -8.49635e-17)
(0 -0 3.05581e-14)
(0 -0 2.78378e-14)
(0 -0 5.10509e-14)
(0 -0 2.94009e-14)
(0 -0 -6.79469e-15)
(0 -0 4.01252e-12)
(0 -0 -9.81236e-12)
(0 -0 2.37223e-12)
(0 -0 -4.88021e-13)
(0 -0 1.74558e-13)
(0 -0 2.74791e-14)
(0 -0 5.57305e-14)
(0 -0 6.85048e-14)
(0 -0 1.60433e-14)
(0 -0 3.99879e-14)
(0 -0 5.62499e-14)
(0 -0 -2.50632e-14)
(0 -0 -7.13001e-14)
(0 -0 -5.17313e-14)
(0 -0 7.25821e-15)
(0 -0 -9.26009e-14)
(0 -0 -1.01551e-13)
(0 -0 -6.64477e-15)
(0 -0 1.4496e-14)
(0 -0 9.51139e-15)
(0 -0 -3.1654e-12)
(0 -0 4.65739e-12)
(0 -0 -1.22653e-12)
(0 -0 1.4959e-13)
(0 -0 -1.76042e-13)
(0 -0 -2.87172e-14)
(0 -0 -1.26011e-13)
(0 -0 -1.59286e-13)
(0 -0 -1.46862e-13)
(0 -0 -1.14653e-13)
(0 -0 -1.31235e-13)
(0 -0 -6.81932e-14)
(0 -0 -8.61719e-15)
(0 -0 -2.00083e-14)
(0 -0 -5.62835e-14)
(0 -0 -6.05382e-14)
(0 -0 -3.8402e-14)
(0 -0 -5.35008e-14)
(0 -0 1.15124e-14)
(0 -0 2.84818e-15)
(0 -0 -4.21848e-12)
(0 -0 6.70385e-12)
(0 -0 -1.37025e-12)
(0 -0 4.32515e-13)
(0 -0 1.16274e-14)
(0 -0 7.66594e-14)
(0 -0 4.44563e-14)
(0 -0 5.27058e-14)
(0 -0 6.31045e-14)
(0 -0 2.39777e-14)
(0 -0 3.73045e-14)
(0 -0 2.49077e-14)
(0 -0 4.34848e-14)
(0 -0 2.62874e-14)
(0 -0 -1.49098e-14)
(0 -0 4.97022e-14)
(0 -0 3.28163e-14)
(0 -0 1.46571e-14)
(0 -0 8.02654e-15)
(0 -0 1.75425e-14)
)
;

boundaryField
{
    movingWall
    {
        type            calculated;
        value           nonuniform List<vector> 
20
(
(0 -0 -1.19386e-11)
(0 -0 8.88678e-12)
(0 -0 -1.31084e-12)
(0 -0 6.44758e-13)
(0 -0 1.96766e-13)
(0 -0 2.00085e-13)
(0 -0 2.12291e-13)
(0 -0 2.64949e-13)
(0 -0 2.30939e-13)
(0 -0 1.74508e-13)
(0 -0 2.49548e-13)
(0 -0 1.75438e-13)
(0 -0 1.05198e-13)
(0 -0 4.35913e-14)
(0 -0 7.39081e-14)
(0 -0 8.43099e-14)
(0 -0 5.01202e-14)
(0 -0 1.46571e-14)
(0 -0 -8.07913e-14)
(0 -0 3.48464e-14)
)
;
    }
    fixedWalls
    {
        type            calculated;
        value           nonuniform List<vector> 
60
(
(0 -0 6.43853e-11)
(0 -0 1.79829e-12)
(0 -0 -5.17755e-11)
(0 -0 4.37779e-11)
(0 -0 -5.60228e-12)
(0 -0 -4.13275e-11)
(0 -0 6.12128e-11)
(0 -0 -2.46138e-11)
(0 -0 -2.77101e-11)
(0 -0 5.9433e-11)
(0 -0 -5.81403e-11)
(0 -0 3.21001e-11)
(0 -0 3.05397e-12)
(0 -0 -3.41232e-11)
(0 -0 5.59361e-11)
(0 -0 -4.04607e-11)
(0 -0 -5.05077e-12)
(0 -0 4.24602e-11)
(0 -0 -2.02082e-11)
(0 -0 -2.83512e-11)
(0 -0 -2.18037e-14)
(0 -0 8.92333e-15)
(0 -0 7.13559e-14)
(0 -0 4.06322e-14)
(0 -0 1.8948e-14)
(0 -0 4.02892e-14)
(0 -0 3.20297e-14)
(0 -0 -1.36792e-14)
(0 -0 3.21733e-14)
(0 -0 3.94648e-15)
(0 -0 -4.78821e-15)
(0 -0 1.10748e-14)
(0 -0 3.17779e-14)
(0 -0 2.46564e-14)
(0 -0 -8.12897e-15)
(0 -0 5.44746e-15)
(0 -0 -1.37303e-14)
(0 -0 -1.97799e-15)
(0 -0 -6.90257e-15)
(0 -0 1.19203e-14)
(0 -0 1.71235e-11)
(0 -0 -1.75211e-11)
(0 -0 2.85095e-12)
(0 -0 -1.0849e-12)
(0 -0 -1.42009e-13)
(0 -0 -2.65609e-13)
(0 -0 -2.21279e-13)
(0 -0 -2.25479e-13)
(0 -0 -1.31657e-13)
(0 -0 -4.94187e-14)
(0 -0 -1.86434e-13)
(0 -0 -9.20458e-14)
(0 -0 8.26123e-14)
(0 -0 7.85787e-14)
(0 -0 8.09954e-14)
(0 -0 8.15041e-14)
(0 -0 8.40384e-15)
(0 -0 -1.09755e-13)
(0 -0 -3.85286e-14)
(0 -0 -1.62046e-14)
)
;
    }
    frontAndBack
    {
        type            empty;
    }
}


// ************************************************************************* //
