/*--------------------------------*- C++ -*----------------------------------*\
| =========                 |                                                 |
| \\      /  F ield         | OpenFOAM: The Open Source CFD Toolbox           |
|  \\    /   O peration     | Version:  2506                                  |
|   \\  /    A nd           | Website:  www.openfoam.com                      |
|    \\/     M anipulation  |                                                 |
\*---------------------------------------------------------------------------*/
FoamFile
{
    version     2.0;
    format      ascii;
    arch        "LSB;label=32;scalar=64";
    class       volScalarField;
    location    "7.125";
    object      zeroGradient(p);
}
// * * * * * * * * * * * * * * * * * * * * * * * * * * * * * * * * * * * * * //

dimensions      [0 2 -2 0 0 0 0];

internalField   nonuniform List<scalar> 
400
(
0
2.86778e-15
7.54445e-16
7.62475e-16
5.98534e-16
7.2356e-16
7.33434e-16
6.49361e-16
4.48437e-16
2.97281e-16
2.68963e-16
4.40325e-16
4.19408e-16
2.40118e-16
6.33667e-16
8.72821e-16
4.35803e-16
2.34912e-16
4.50515e-16
3.1195e-16
1.24005e-15
0
6.74337e-16
3.23919e-16
5.6069e-16
7.05503e-16
7.36297e-16
6.60343e-16
4.86529e-16
2.81703e-16
3.31933e-16
5.12626e-16
3.47921e-16
3.30094e-16
6.22091e-16
7.42441e-16
5.11744e-16
3.47297e-16
3.01042e-16
1.73383e-16
2.22543e-16
1.51159e-15
4.1199e-16
6.41487e-16
6.21721e-16
7.06497e-16
7.13926e-16
5.83432e-16
5.01881e-16
5.04972e-16
4.63821e-16
4.97871e-16
1.73957e-16
2.11997e-16
4.94982e-16
5.38408e-16
3.7052e-16
3.55666e-16
4.45918e-16
4.52191e-16
1.71211e-17
8.69674e-16
2.93507e-16
8.38884e-16
7.64804e-16
6.67609e-16
6.01318e-16
4.72134e-16
4.58376e-16
6.4116e-16
4.46418e-16
3.65621e-16
3.13554e-16
3.60927e-16
6.30987e-16
3.74893e-16
1.71158e-16
3.09838e-16
5.03868e-16
7.37276e-16
6.77889e-16
0
2.45084e-16
5.43306e-16
8.13257e-16
7.12908e-16
5.55006e-16
5.34894e-16
4.71806e-16
7.29349e-16
6.10993e-16
4.50305e-16
3.46797e-16
4.35249e-16
4.56324e-16
3.6875e-16
3.04122e-16
4.04627e-16
5.6346e-16
9.83352e-16
0
2.0868e-15
3.26779e-16
7.14554e-16
6.75084e-16
6.38452e-16
6.26351e-16
6.75499e-16
5.20113e-16
6.14368e-16
5.76952e-16
6.55272e-16
6.2895e-16
5.17681e-16
5.06927e-16
4.71434e-16
3.83163e-16
2.7102e-16
7.12732e-16
1.10446e-15
2.08905e-16
1.58267e-15
4.41329e-16
6.72208e-16
6.53841e-16
6.93232e-16
6.42763e-16
5.85303e-16
5.55501e-16
7.30794e-16
7.90982e-16
6.79537e-16
5.94408e-16
6.26721e-16
6.71025e-16
7.85609e-16
5.19246e-16
5.92641e-16
9.06034e-16
1.07241e-15
1.19498e-15
0
6.30406e-16
4.12386e-16
5.79638e-16
3.67477e-16
6.63926e-16
7.90004e-16
7.80813e-16
8.18897e-16
9.40226e-16
8.16745e-16
5.86013e-16
7.40005e-16
7.40121e-16
7.04696e-16
8.10893e-16
8.69467e-16
1.00999e-15
1.20682e-15
1.3903e-16
3.48893e-15
6.30041e-16
7.54757e-16
4.89472e-16
4.67938e-16
7.15507e-16
7.14846e-16
1.04849e-15
1.02707e-15
9.81627e-16
9.43172e-16
9.61675e-16
9.96916e-16
8.70962e-16
9.44777e-16
9.98866e-16
7.93749e-16
1.006e-15
1.26562e-15
8.12375e-16
0
8.84258e-16
7.10159e-16
6.21639e-16
4.25697e-16
8.59603e-16
8.21016e-16
1.10791e-15
1.20367e-15
1.23313e-15
1.07177e-15
9.68299e-16
9.20174e-16
9.78252e-16
1.2373e-15
1.30265e-15
9.99232e-16
1.03933e-15
1.31164e-15
1.03458e-15
0
8.16456e-16
6.70932e-16
6.86714e-16
6.48387e-16
7.80596e-16
9.61987e-16
1.17365e-15
1.34098e-15
1.4483e-15
1.28322e-15
1.15854e-15
1.05158e-15
1.17574e-15
1.21967e-15
1.38358e-15
1.0714e-15
1.20024e-15
1.35757e-15
7.26522e-16
3.78523e-15
6.68301e-16
8.92043e-16
7.04237e-16
8.21311e-16
7.19159e-16
9.52478e-16
1.45142e-15
1.56214e-15
1.5426e-15
1.41605e-15
1.26058e-15
1.15374e-15
1.16544e-15
1.34643e-15
1.41284e-15
1.2464e-15
1.28693e-15
1.56089e-15
1.13363e-15
0
1.06277e-15
9.254e-16
1.01481e-15
9.89827e-16
9.76842e-16
1.18371e-15
1.39463e-15
1.48127e-15
1.54175e-15
1.46924e-15
1.29462e-15
1.17215e-15
1.20646e-15
1.53639e-15
1.57096e-15
1.29393e-15
1.2896e-15
1.49325e-15
8.1828e-16
3.60922e-15
9.22282e-16
1.10143e-15
1.03113e-15
1.11221e-15
1.07551e-15
1.36896e-15
1.52453e-15
1.5666e-15
1.7152e-15
1.39021e-15
1.29344e-15
1.30287e-15
1.3842e-15
1.45719e-15
1.49395e-15
1.34467e-15
1.39035e-15
1.62935e-15
1.55635e-15
2.10382e-16
1.15006e-15
1.13717e-15
1.29811e-15
1.34356e-15
1.14986e-15
1.41739e-15
1.66967e-15
1.52087e-15
1.70793e-15
1.51768e-15
1.30915e-15
1.30631e-15
1.38199e-15
1.54759e-15
1.54976e-15
1.2867e-15
1.20076e-15
1.73203e-15
1.662e-15
0
1.34036e-15
1.21467e-15
1.38436e-15
1.38732e-15
1.45868e-15
1.51661e-15
1.57527e-15
1.48983e-15
1.62313e-15
1.50127e-15
1.3439e-15
1.25834e-15
1.41437e-15
1.45603e-15
1.52586e-15
1.29709e-15
1.38441e-15
1.82116e-15
5.11599e-16
3.78454e-15
1.3706e-15
1.51098e-15
1.37276e-15
1.51749e-15
1.54114e-15
1.6411e-15
1.69359e-15
1.54388e-15
1.67522e-15
1.42031e-15
1.3041e-15
1.35846e-15
1.47034e-15
1.4638e-15
1.45148e-15
1.09601e-15
1.34058e-15
1.80217e-15
1.69637e-15
4.64605e-16
1.43787e-15
1.32996e-15
1.43981e-15
1.43165e-15
1.61674e-15
1.60113e-15
1.74279e-15
1.53691e-15
1.41107e-15
1.20434e-15
1.31068e-15
1.46576e-15
1.49459e-15
1.60984e-15
1.45645e-15
1.22412e-15
1.24287e-15
1.69993e-15
2.02589e-15
2.10437e-16
1.29679e-15
1.39109e-15
1.67144e-15
1.55221e-15
1.40019e-15
1.5046e-15
1.68998e-15
1.6617e-15
1.43163e-15
1.14871e-15
1.28169e-15
1.4608e-15
1.48845e-15
1.53534e-15
1.45644e-15
1.24151e-15
1.39755e-15
1.78241e-15
5.67621e-16
2.64215e-15
1.35891e-15
1.77298e-15
1.75152e-15
1.53765e-15
1.3092e-15
1.53479e-15
1.79058e-15
1.60196e-15
1.35357e-15
1.29962e-15
1.39665e-15
1.33617e-15
1.42352e-15
1.44591e-15
1.37885e-15
1.23415e-15
1.35463e-15
1.70484e-15
)
;

boundaryField
{
    movingWall
    {
        type            zeroGradient;
    }
    fixedWalls
    {
        type            zeroGradient;
    }
    frontAndBack
    {
        type            empty;
    }
}


// ************************************************************************* //
