/*--------------------------------*- C++ -*----------------------------------*\
| =========                 |                                                 |
| \\      /  F ield         | OpenFOAM: The Open Source CFD Toolbox           |
|  \\    /   O peration     | Version:  2506                                  |
|   \\  /    A nd           | Website:  www.openfoam.com                      |
|    \\/     M anipulation  |                                                 |
\*---------------------------------------------------------------------------*/
FoamFile
{
    version     2.0;
    format      ascii;
    arch        "LSB;label=32;scalar=64";
    class       volVectorField;
    location    "3.125";
    object      diffU;
}
// * * * * * * * * * * * * * * * * * * * * * * * * * * * * * * * * * * * * * //

dimensions      [0 1 -1 0 0 0 0];

internalField   nonuniform List<vector> 
400
(
(0 0 0)
(-6.86451e-09 -3.70459e-07 0)
(-6.27054e-09 -2.86324e-07 0)
(-6.52009e-09 -3.06127e-07 0)
(-6.58515e-09 -3.01626e-07 0)
(-6.55409e-09 -3.02671e-07 0)
(-6.55926e-09 -3.02427e-07 0)
(-6.54953e-09 -3.02481e-07 0)
(-6.54936e-09 -3.02467e-07 0)
(-6.54852e-09 -3.02469e-07 0)
(-6.54979e-09 -3.02468e-07 0)
(-6.55146e-09 -3.02468e-07 0)
(-6.55354e-09 -3.02468e-07 0)
(-6.55557e-09 -3.02468e-07 0)
(-6.55741e-09 -3.02468e-07 0)
(-6.55887e-09 -3.02468e-07 0)
(-6.55995e-09 -3.02468e-07 0)
(-6.56082e-09 -3.02468e-07 0)
(-6.56127e-09 -3.02469e-07 0)
(-6.56098e-09 -3.02469e-07 0)
(-4.54647e-08 -6.18434e-07 0)
(-4.15338e-10 -2.31752e-07 0)
(-9.69188e-09 -3.1928e-07 0)
(-6.14754e-09 -2.98711e-07 0)
(-6.75806e-09 -3.03367e-07 0)
(-6.51667e-09 -3.02279e-07 0)
(-6.56385e-09 -3.02525e-07 0)
(-6.54545e-09 -3.02463e-07 0)
(-6.54821e-09 -3.02473e-07 0)
(-6.54732e-09 -3.02467e-07 0)
(-6.54901e-09 -3.02467e-07 0)
(-6.55091e-09 -3.02466e-07 0)
(-6.55318e-09 -3.02466e-07 0)
(-6.55535e-09 -3.02466e-07 0)
(-6.55727e-09 -3.02466e-07 0)
(-6.55879e-09 -3.02467e-07 0)
(-6.55996e-09 -3.02467e-07 0)
(-6.56082e-09 -3.02468e-07 0)
(-6.56123e-09 -3.02469e-07 0)
(-6.56098e-09 -3.02469e-07 0)
(4.76074e-08 4.21744e-08 0)
(-1.3502e-08 -3.78623e-07 0)
(-2.63445e-09 -2.84498e-07 0)
(-6.91133e-09 -3.06511e-07 0)
(-6.39438e-09 -3.01588e-07 0)
(-6.58397e-09 -3.02704e-07 0)
(-6.54571e-09 -3.02437e-07 0)
(-6.54629e-09 -3.02487e-07 0)
(-6.54502e-09 -3.02468e-07 0)
(-6.54572e-09 -3.02467e-07 0)
(-6.54784e-09 -3.02465e-07 0)
(-6.55017e-09 -3.02464e-07 0)
(-6.5527e-09 -3.02463e-07 0)
(-6.55505e-09 -3.02464e-07 0)
(-6.55709e-09 -3.02464e-07 0)
(-6.55867e-09 -3.02465e-07 0)
(-6.55984e-09 -3.02466e-07 0)
(-6.56077e-09 -3.02467e-07 0)
(-6.56124e-09 -3.02468e-07 0)
(-6.56098e-09 -3.02469e-07 0)
(-1.25436e-07 -6.93014e-07 0)
(1.31782e-08 -2.17241e-07 0)
(-1.60598e-08 -3.22741e-07 0)
(-5.15038e-09 -2.98131e-07 0)
(-7.1304e-09 -3.03525e-07 0)
(-6.40967e-09 -3.02274e-07 0)
(-6.57389e-09 -3.02536e-07 0)
(-6.52943e-09 -3.02466e-07 0)
(-6.54376e-09 -3.02472e-07 0)
(-6.54286e-09 -3.02464e-07 0)
(-6.54654e-09 -3.02462e-07 0)
(-6.54925e-09 -3.02461e-07 0)
(-6.55218e-09 -3.02461e-07 0)
(-6.55474e-09 -3.02461e-07 0)
(-6.5569e-09 -3.02463e-07 0)
(-6.55857e-09 -3.02464e-07 0)
(-6.55985e-09 -3.02465e-07 0)
(-6.56075e-09 -3.02466e-07 0)
(-6.56117e-09 -3.02468e-07 0)
(-6.56099e-09 -3.02469e-07 0)
(1.50242e-07 1.62269e-07 0)
(-3.13415e-08 -4.046e-07 0)
(5.69824e-09 -2.78476e-07 0)
(-8.20978e-09 -3.07873e-07 0)
(-5.83368e-09 -3.01315e-07 0)
(-6.68623e-09 -3.02782e-07 0)
(-6.49528e-09 -3.02426e-07 0)
(-6.54525e-09 -3.02489e-07 0)
(-6.53492e-09 -3.02464e-07 0)
(-6.54158e-09 -3.02462e-07 0)
(-6.5446e-09 -3.02459e-07 0)
(-6.54838e-09 -3.02458e-07 0)
(-6.55158e-09 -3.02458e-07 0)
(-6.5544e-09 -3.02459e-07 0)
(-6.55671e-09 -3.02461e-07 0)
(-6.55846e-09 -3.02462e-07 0)
(-6.55971e-09 -3.02464e-07 0)
(-6.56069e-09 -3.02466e-07 0)
(-6.56119e-09 -3.02468e-07 0)
(-6.56099e-09 -3.02469e-07 0)
(-2.4171e-07 -8.59892e-07 0)
(3.28063e-08 -1.82216e-07 0)
(-2.5185e-08 -3.30961e-07 0)
(-3.68885e-09 -2.96463e-07 0)
(-7.63012e-09 -3.03891e-07 0)
(-6.25138e-09 -3.02196e-07 0)
(-6.58351e-09 -3.02544e-07 0)
(-6.50685e-09 -3.02456e-07 0)
(-6.53775e-09 -3.02465e-07 0)
(-6.53748e-09 -3.02457e-07 0)
(-6.54381e-09 -3.02455e-07 0)
(-6.5476e-09 -3.02454e-07 0)
(-6.55129e-09 -3.02455e-07 0)
(-6.55425e-09 -3.02456e-07 0)
(-6.55663e-09 -3.02458e-07 0)
(-6.55842e-09 -3.02461e-07 0)
(-6.55978e-09 -3.02463e-07 0)
(-6.56068e-09 -3.02465e-07 0)
(-6.5611e-09 -3.02468e-07 0)
(-6.56101e-09 -3.02469e-07 0)
(3.38259e-07 3.88652e-07 0)
(-6.72284e-08 -4.53747e-07 0)
(2.14798e-08 -2.66963e-07 0)
(-1.10606e-08 -3.1033e-07 0)
(-4.70418e-09 -3.00757e-07 0)
(-6.92956e-09 -3.02886e-07 0)
(-6.40373e-09 -3.0239e-07 0)
(-6.558e-09 -3.02482e-07 0)
(-6.52242e-09 -3.02452e-07 0)
(-6.5396e-09 -3.02452e-07 0)
(-6.54213e-09 -3.0245e-07 0)
(-6.54757e-09 -3.0245e-07 0)
(-6.55116e-09 -3.02451e-07 0)
(-6.55429e-09 -3.02453e-07 0)
(-6.55667e-09 -3.02456e-07 0)
(-6.55845e-09 -3.02459e-07 0)
(-6.5597e-09 -3.02462e-07 0)
(-6.56064e-09 -3.02464e-07 0)
(-6.56112e-09 -3.02468e-07 0)
(-6.56101e-09 -3.02469e-07 0)
(-4.45351e-07 -1.15723e-06 0)
(7.10947e-08 -1.14746e-07 0)
(-4.19683e-08 -3.46744e-07 0)
(-5.62397e-10 -2.92821e-07 0)
(-8.7076e-09 -3.04676e-07 0)
(-5.93908e-09 -3.01977e-07 0)
(-6.64026e-09 -3.02563e-07 0)
(-6.47492e-09 -3.02428e-07 0)
(-6.53922e-09 -3.02452e-07 0)
(-6.53419e-09 -3.02444e-07 0)
(-6.54387e-09 -3.02445e-07 0)
(-6.5477e-09 -3.02445e-07 0)
(-6.55176e-09 -3.02448e-07 0)
(-6.55468e-09 -3.02451e-07 0)
(-6.55695e-09 -3.02454e-07 0)
(-6.55861e-09 -3.02458e-07 0)
(-6.55989e-09 -3.02461e-07 0)
(-6.56068e-09 -3.02464e-07 0)
(-6.56102e-09 -3.02468e-07 0)
(-6.56103e-09 -3.02469e-07 0)
(5.73799e-07 7.52967e-07 0)
(-1.12303e-07 -5.36364e-07 0)
(4.13379e-08 -2.4745e-07 0)
(-1.47381e-08 -3.14636e-07 0)
(-3.32278e-09 -2.99714e-07 0)
(-7.26255e-09 -3.03071e-07 0)
(-6.30705e-09 -3.02314e-07 0)
(-6.58626e-09 -3.0247e-07 0)
(-6.51584e-09 -3.02432e-07 0)
(-6.54312e-09 -3.02439e-07 0)
(-6.54335e-09 -3.02439e-07 0)
(-6.54948e-09 -3.02441e-07 0)
(-6.55261e-09 -3.02444e-07 0)
(-6.55543e-09 -3.02448e-07 0)
(-6.55743e-09 -3.02452e-07 0)
(-6.55891e-09 -3.02456e-07 0)
(-6.55993e-09 -3.0246e-07 0)
(-6.56068e-09 -3.02463e-07 0)
(-6.56106e-09 -3.02467e-07 0)
(-6.56104e-09 -3.02469e-07 0)
(-7.23967e-07 -1.58842e-06 0)
(1.27185e-07 -1.47205e-08 0)
(-6.61019e-08 -3.70474e-07 0)
(4.30363e-09 -2.87347e-07 0)
(-1.04284e-08 -3.05878e-07 0)
(-5.47515e-09 -3.01642e-07 0)
(-6.76571e-09 -3.02593e-07 0)
(-6.4387e-09 -3.02389e-07 0)
(-6.55434e-09 -3.02437e-07 0)
(-6.53628e-09 -3.0243e-07 0)
(-6.54907e-09 -3.02434e-07 0)
(-6.55099e-09 -3.02437e-07 0)
(-6.55449e-09 -3.02441e-07 0)
(-6.55656e-09 -3.02446e-07 0)
(-6.5582e-09 -3.02451e-07 0)
(-6.55934e-09 -3.02455e-07 0)
(-6.56026e-09 -3.02459e-07 0)
(-6.56078e-09 -3.02463e-07 0)
(-6.56098e-09 -3.02467e-07 0)
(-6.56105e-09 -3.02469e-07 0)
(8.44722e-07 1.21839e-06 0)
(-1.69065e-07 -6.49874e-07 0)
(6.67743e-08 -2.1994e-07 0)
(-1.97364e-08 -3.20826e-07 0)
(-1.41184e-09 -2.98044e-07 0)
(-7.77022e-09 -3.03365e-07 0)
(-6.18812e-09 -3.02191e-07 0)
(-6.6452e-09 -3.02466e-07 0)
(-6.51689e-09 -3.02411e-07 0)
(-6.55549e-09 -3.02428e-07 0)
(-6.54938e-09 -3.02429e-07 0)
(-6.55497e-09 -3.02434e-07 0)
(-6.55636e-09 -3.02439e-07 0)
(-6.55811e-09 -3.02444e-07 0)
(-6.55914e-09 -3.02449e-07 0)
(-6.55993e-09 -3.02454e-07 0)
(-6.56044e-09 -3.02459e-07 0)
(-6.56083e-09 -3.02462e-07 0)
(-6.56102e-09 -3.02467e-07 0)
(-6.56107e-09 -3.02469e-07 0)
(-9.1283e-07 -1.97468e-06 0)
(1.71143e-07 9.35007e-08 0)
(-8.6622e-08 -3.95543e-07 0)
(8.4547e-09 -2.80453e-07 0)
(-1.23238e-08 -3.07466e-07 0)
(-5.09436e-09 -3.01207e-07 0)
(-6.94565e-09 -3.02672e-07 0)
(-6.41946e-09 -3.0235e-07 0)
(-6.58226e-09 -3.02431e-07 0)
(-6.54482e-09 -3.02419e-07 0)
(-6.55904e-09 -3.02428e-07 0)
(-6.55738e-09 -3.02432e-07 0)
(-6.55938e-09 -3.02438e-07 0)
(-6.55985e-09 -3.02443e-07 0)
(-6.56034e-09 -3.02449e-07 0)
(-6.56059e-09 -3.02454e-07 0)
(-6.56089e-09 -3.02458e-07 0)
(-6.56099e-09 -3.02462e-07 0)
(-6.56096e-09 -3.02467e-07 0)
(-6.56108e-09 -3.02469e-07 0)
(8.97107e-07 1.47382e-06 0)
(-1.8885e-07 -7.29325e-07 0)
(7.42632e-08 -2.01639e-07 0)
(-2.26286e-08 -3.26497e-07 0)
(-5.11891e-10 -2.96693e-07 0)
(-8.14544e-09 -3.03746e-07 0)
(-6.11879e-09 -3.02085e-07 0)
(-6.70329e-09 -3.02485e-07 0)
(-6.52503e-09 -3.02398e-07 0)
(-6.57216e-09 -3.02425e-07 0)
(-6.55874e-09 -3.02425e-07 0)
(-6.5629e-09 -3.02432e-07 0)
(-6.56183e-09 -3.02437e-07 0)
(-6.56197e-09 -3.02443e-07 0)
(-6.56161e-09 -3.02449e-07 0)
(-6.56139e-09 -3.02454e-07 0)
(-6.5612e-09 -3.02458e-07 0)
(-6.56109e-09 -3.02462e-07 0)
(-6.56101e-09 -3.02467e-07 0)
(-6.56109e-09 -3.02469e-07 0)
(-8.49471e-07 -2.16135e-06 0)
(1.64599e-07 1.47499e-07 0)
(-8.23674e-08 -4.08835e-07 0)
(8.53769e-09 -2.76761e-07 0)
(-1.23007e-08 -3.08529e-07 0)
(-5.07809e-09 -3.0095e-07 0)
(-6.98954e-09 -3.02759e-07 0)
(-6.43186e-09 -3.02328e-07 0)
(-6.60216e-09 -3.02435e-07 0)
(-6.55743e-09 -3.02416e-07 0)
(-6.57021e-09 -3.02427e-07 0)
(-6.5655e-09 -3.02432e-07 0)
(-6.56545e-09 -3.02438e-07 0)
(-6.56403e-09 -3.02444e-07 0)
(-6.56306e-09 -3.02449e-07 0)
(-6.56221e-09 -3.02454e-07 0)
(-6.56172e-09 -3.02459e-07 0)
(-6.56128e-09 -3.02462e-07 0)
(-6.56097e-09 -3.02467e-07 0)
(-6.5611e-09 -3.02469e-07 0)
(7.59908e-07 1.62032e-06 0)
(-1.65027e-07 -7.70531e-07 0)
(6.27905e-08 -1.91737e-07 0)
(-2.08556e-08 -3.29431e-07 0)
(-1.19916e-09 -2.95961e-07 0)
(-8.00085e-09 -3.03967e-07 0)
(-6.16531e-09 -3.02026e-07 0)
(-6.70815e-09 -3.02501e-07 0)
(-6.54181e-09 -3.02393e-07 0)
(-6.58527e-09 -3.02427e-07 0)
(-6.56986e-09 -3.02426e-07 0)
(-6.57152e-09 -3.02434e-07 0)
(-6.56817e-09 -3.02439e-07 0)
(-6.5664e-09 -3.02445e-07 0)
(-6.5645e-09 -3.02451e-07 0)
(-6.56313e-09 -3.02455e-07 0)
(-6.56212e-09 -3.02459e-07 0)
(-6.56142e-09 -3.02463e-07 0)
(-6.56101e-09 -3.02467e-07 0)
(-6.56111e-09 -3.02469e-07 0)
(-6.60216e-07 -2.27099e-06 0)
(1.28341e-07 1.74436e-07 0)
(-6.53298e-08 -4.15253e-07 0)
(5.54832e-09 -2.75114e-07 0)
(-1.10295e-08 -3.08911e-07 0)
(-5.37448e-09 -3.00839e-07 0)
(-6.91428e-09 -3.02777e-07 0)
(-6.47541e-09 -3.02319e-07 0)
(-6.6115e-09 -3.02438e-07 0)
(-6.57372e-09 -3.02418e-07 0)
(-6.58115e-09 -3.02432e-07 0)
(-6.57455e-09 -3.02436e-07 0)
(-6.57191e-09 -3.02442e-07 0)
(-6.56856e-09 -3.02448e-07 0)
(-6.566e-09 -3.02453e-07 0)
(-6.56398e-09 -3.02457e-07 0)
(-6.56264e-09 -3.0246e-07 0)
(-6.56163e-09 -3.02463e-07 0)
(-6.561e-09 -3.02467e-07 0)
(-6.56112e-09 -3.02469e-07 0)
(6.31959e-07 1.70622e-06 0)
(-1.4506e-07 -7.95543e-07 0)
(5.21267e-08 -1.85386e-07 0)
(-1.94527e-08 -3.3113e-07 0)
(-1.8315e-09 -2.95412e-07 0)
(-7.8839e-09 -3.04073e-07 0)
(-6.21379e-09 -3.01972e-07 0)
(-6.71883e-09 -3.02508e-07 0)
(-6.56176e-09 -3.02393e-07 0)
(-6.60061e-09 -3.02434e-07 0)
(-6.58213e-09 -3.02433e-07 0)
(-6.58065e-09 -3.02441e-07 0)
(-6.57467e-09 -3.02446e-07 0)
(-6.57085e-09 -3.02451e-07 0)
(-6.56735e-09 -3.02455e-07 0)
(-6.56483e-09 -3.02459e-07 0)
(-6.56302e-09 -3.02462e-07 0)
(-6.56176e-09 -3.02464e-07 0)
(-6.56103e-09 -3.02467e-07 0)
(-6.56112e-09 -3.02469e-07 0)
(-3.13319e-07 -2.34066e-06 0)
(5.24807e-08 1.97598e-07 0)
(-3.35773e-08 -4.20608e-07 0)
(-1.42033e-09 -2.72958e-07 0)
(-8.53758e-09 -3.09313e-07 0)
(-6.08749e-09 -3.00602e-07 0)
(-6.75046e-09 -3.0281e-07 0)
(-6.56779e-09 -3.02302e-07 0)
(-6.61903e-09 -3.02451e-07 0)
(-6.5964e-09 -3.02428e-07 0)
(-6.59239e-09 -3.02443e-07 0)
(-6.58382e-09 -3.02447e-07 0)
(-6.57786e-09 -3.02452e-07 0)
(-6.5726e-09 -3.02455e-07 0)
(-6.5685e-09 -3.02458e-07 0)
(-6.56543e-09 -3.02461e-07 0)
(-6.56334e-09 -3.02463e-07 0)
(-6.56187e-09 -3.02465e-07 0)
(-6.56104e-09 -3.02468e-07 0)
(-6.56114e-09 -3.02469e-07 0)
(3.31059e-07 1.74228e-06 0)
(-8.02199e-08 -7.91381e-07 0)
(2.37054e-08 -1.86225e-07 0)
(-1.34938e-08 -3.29513e-07 0)
(-4.38083e-09 -2.95727e-07 0)
(-7.36813e-09 -3.03844e-07 0)
(-6.49137e-09 -3.02035e-07 0)
(-6.70241e-09 -3.02502e-07 0)
(-6.60867e-09 -3.02418e-07 0)
(-6.61339e-09 -3.0245e-07 0)
(-6.59581e-09 -3.0245e-07 0)
(-6.58807e-09 -3.02455e-07 0)
(-6.58007e-09 -3.02458e-07 0)
(-6.57419e-09 -3.0246e-07 0)
(-6.56946e-09 -3.02462e-07 0)
(-6.56606e-09 -3.02464e-07 0)
(-6.5637e-09 -3.02465e-07 0)
(-6.562e-09 -3.02467e-07 0)
(-6.56102e-09 -3.02468e-07 0)
(-6.56113e-09 -3.02469e-07 0)
(-3.53901e-07 -2.37468e-06 0)
(7.87784e-08 2.1818e-07 0)
(-4.05748e-08 -4.25976e-07 0)
(1.56301e-09 -2.71104e-07 0)
(-9.87197e-09 -3.10056e-07 0)
(-5.90841e-09 -3.00509e-07 0)
(-6.9702e-09 -3.02931e-07 0)
(-6.57708e-09 -3.02328e-07 0)
(-6.6578e-09 -3.02489e-07 0)
(-6.60654e-09 -3.02452e-07 0)
(-6.60269e-09 -3.02465e-07 0)
(-6.5891e-09 -3.02463e-07 0)
(-6.58179e-09 -3.02465e-07 0)
(-6.57508e-09 -3.02466e-07 0)
(-6.5702e-09 -3.02467e-07 0)
(-6.56659e-09 -3.02467e-07 0)
(-6.56409e-09 -3.02468e-07 0)
(-6.56218e-09 -3.02468e-07 0)
(-6.561e-09 -3.02468e-07 0)
(-6.56109e-09 -3.02469e-07 0)
)
;

boundaryField
{
    movingWall
    {
        type            calculated;
        value           uniform (-6.56106e-09 -3.02469e-07 0);
    }
    fixedWalls
    {
        type            calculated;
        value           uniform (-6.56106e-09 -3.02469e-07 0);
    }
    frontAndBack
    {
        type            empty;
    }
}


// ************************************************************************* //
