/*--------------------------------*- C++ -*----------------------------------*\
| =========                 |                                                 |
| \\      /  F ield         | OpenFOAM: The Open Source CFD Toolbox           |
|  \\    /   O peration     | Version:  2506                                  |
|   \\  /    A nd           | Website:  www.openfoam.com                      |
|    \\/     M anipulation  |                                                 |
\*---------------------------------------------------------------------------*/
FoamFile
{
    version     2.0;
    format      ascii;
    arch        "LSB;label=32;scalar=64";
    class       volScalarField;
    location    "3.125";
    object      divU;
}
// * * * * * * * * * * * * * * * * * * * * * * * * * * * * * * * * * * * * * //

dimensions      [0 0 -1 0 0 0 0];

internalField   nonuniform List<scalar> 
400
(
-7.23911e-07
-3.5447e-07
-3.22456e-08
-2.15488e-08
-8.988e-09
1.32513e-09
-9.35015e-10
3.6527e-10
-1.28682e-10
4.84878e-11
-1.0447e-11
1.23529e-11
6.65523e-12
7.48848e-12
6.86377e-12
7.62828e-12
1.58377e-12
-7.60736e-13
5.82625e-12
9.86624e-12
9.41651e-07
2.76094e-06
-3.90558e-07
2.55071e-07
-3.30598e-08
1.61468e-08
-3.9382e-09
9.74223e-10
-3.24621e-10
8.67489e-11
-1.83795e-11
1.28361e-11
4.22583e-12
6.20087e-12
6.87128e-12
2.2586e-12
-1.83754e-12
8.62963e-12
5.23022e-12
7.15573e-12
-2.73524e-06
-3.57304e-06
3.12932e-07
-3.18012e-07
1.69459e-08
-1.46627e-08
2.61467e-09
-2.23898e-10
1.36535e-10
1.79283e-11
1.5155e-12
1.04116e-11
5.7216e-12
5.24507e-12
6.251e-12
8.42109e-12
-1.83724e-12
-3.2652e-12
4.72821e-12
1.01102e-11
2.09589e-06
8.33987e-06
-1.23073e-06
7.56705e-07
-9.86052e-08
4.78795e-08
-1.08866e-08
2.78482e-09
-9.01301e-10
2.20286e-10
-5.19761e-11
2.37811e-11
2.30016e-12
7.54951e-12
7.45473e-12
9.08474e-13
-2.80439e-12
9.82692e-12
7.03022e-12
4.71628e-12
-3.4855e-06
-1.0952e-05
1.49116e-06
-9.86377e-07
1.1572e-07
-5.82973e-08
1.33397e-08
-3.03384e-09
1.08455e-09
-2.01646e-10
6.62801e-11
-9.48812e-12
9.25072e-12
2.85742e-12
5.45491e-12
7.47482e-12
-2.03328e-12
-4.67756e-12
5.45588e-12
8.40257e-12
3.06023e-06
1.67378e-05
-2.49818e-06
1.50975e-06
-2.00509e-07
9.42163e-08
-2.1868e-08
5.34509e-09
-1.84339e-09
3.98253e-10
-1.10754e-10
3.5075e-11
-3.05912e-12
7.60358e-12
6.74354e-12
-2.29976e-12
-5.23547e-12
1.09043e-11
8.41253e-12
1.57209e-12
-1.31886e-06
-2.49309e-05
4.03856e-06
-2.25421e-06
3.34614e-07
-1.48129e-07
3.52467e-08
-9.06049e-09
3.10739e-09
-6.91852e-10
2.13773e-10
-5.53775e-11
1.72987e-11
-2.35255e-12
4.43572e-12
5.11309e-12
-3.08854e-12
-5.90892e-12
6.06618e-12
5.9089e-12
3.17967e-07
3.20766e-05
-5.21442e-06
2.89547e-06
-4.33307e-07
1.88288e-07
-4.60015e-08
1.12729e-08
-3.98495e-09
8.54934e-10
-2.63945e-10
6.9877e-11
-1.76691e-11
8.85857e-12
4.73362e-12
-5.53106e-12
-7.73008e-12
1.12941e-11
9.53453e-12
-1.65341e-12
4.34325e-06
-4.32435e-05
7.38341e-06
-3.91861e-06
6.27367e-07
-2.64884e-07
6.46156e-08
-1.69214e-08
5.82122e-09
-1.31596e-09
3.96038e-10
-1.15856e-10
2.7299e-11
-8.1883e-12
3.9923e-12
2.16797e-12
-4.34692e-12
-6.38159e-12
6.64855e-12
2.95445e-12
-1.1824e-05
5.44355e-05
-9.53711e-06
4.94842e-06
-8.10902e-07
3.3687e-07
-8.4085e-08
2.15214e-08
-7.6591e-09
1.62931e-09
-5.40828e-10
1.37225e-10
-3.93823e-11
1.43161e-11
2.66963e-12
-7.60139e-12
-9.78028e-12
1.12414e-11
1.04425e-11
-4.60786e-12
3.02521e-05
-6.69727e-05
1.2426e-05
-6.12927e-06
1.03784e-06
-4.34184e-07
1.04554e-07
-2.8959e-08
9.59872e-09
-2.21616e-09
6.97691e-10
-1.90091e-10
5.09443e-11
-1.32745e-11
5.75444e-12
-3.93877e-13
-4.98284e-12
-6.0289e-12
7.0817e-12
1.0842e-13
-4.73135e-05
7.46756e-05
-1.44388e-05
6.86272e-06
-1.21985e-06
4.99624e-07
-1.21947e-07
3.4449e-08
-1.12003e-08
2.67185e-09
-8.17613e-10
2.31214e-10
-5.8934e-11
2.32791e-11
1.18865e-12
-8.51696e-12
-1.12376e-11
1.03669e-11
1.06242e-11
-6.50521e-12
5.34707e-05
-7.68845e-05
1.52929e-05
-7.10828e-06
1.34198e-06
-5.34993e-07
1.35583e-07
-3.84545e-08
1.27024e-08
-3.02447e-09
9.88873e-10
-2.5933e-10
7.60409e-11
-1.89129e-11
7.35053e-12
-3.56103e-12
-5.12727e-12
-4.6163e-12
6.66988e-12
-2.11419e-12
-5.25246e-05
7.25898e-05
-1.4616e-05
6.71323e-06
-1.28836e-06
5.09103e-07
-1.29439e-07
3.71095e-08
-1.20761e-08
2.9777e-09
-9.24675e-10
2.58552e-10
-7.32533e-11
2.43478e-11
-1.5789e-12
-9.37284e-12
-1.19966e-11
8.29223e-12
9.14528e-12
-6.88468e-12
4.98358e-05
-6.70181e-05
1.37753e-05
-6.2343e-06
1.24727e-06
-4.85482e-07
1.27413e-07
-3.68149e-08
1.20411e-08
-3.06828e-09
9.4839e-10
-2.83661e-10
6.90431e-11
-2.54271e-11
4.57939e-12
-8.51662e-12
-6.78313e-12
-2.98876e-12
4.58137e-12
-3.38813e-12
-4.32849e-05
5.69874e-05
-1.16441e-05
5.26017e-06
-1.03739e-06
4.00915e-07
-1.04684e-07
2.95675e-08
-9.7925e-09
2.34012e-09
-7.93876e-10
1.75451e-10
-7.9706e-11
7.93512e-12
-8.69875e-12
-1.36057e-11
-1.31796e-11
5.44836e-12
7.01549e-12
-6.451e-12
4.30359e-05
-5.56671e-05
1.20252e-05
-5.18018e-06
1.11669e-06
-4.14484e-07
1.13233e-07
-3.30017e-08
1.05184e-08
-2.95347e-09
8.13682e-10
-2.87601e-10
5.81041e-11
-2.40456e-11
7.43773e-12
-5.52572e-12
-2.41316e-12
1.50587e-12
4.35984e-12
-5.25838e-12
-2.11663e-05
2.83904e-05
-5.47397e-06
2.66559e-06
-4.98234e-07
2.01618e-07
-5.43169e-08
1.37648e-08
-5.43137e-09
1.09321e-09
-4.22621e-10
9.53372e-11
-3.54151e-11
1.29382e-11
3.14152e-12
-6.83613e-12
-1.12684e-11
1.87654e-12
7.3039e-12
-5.39391e-12
2.29933e-05
-2.86772e-05
6.13586e-06
-2.62323e-06
5.38235e-07
-2.01742e-07
5.44359e-08
-1.44005e-08
5.02999e-09
-1.1752e-09
3.81266e-10
-1.11621e-10
1.90341e-11
-1.1742e-11
-4.40511e-12
-2.05372e-11
-1.30607e-11
4.80878e-12
4.55757e-12
-2.87314e-12
-2.3453e-05
2.8159e-05
-6.99527e-06
2.63823e-06
-6.62501e-07
2.31648e-07
-6.39785e-08
2.05181e-08
-5.92961e-09
1.94064e-09
-5.00929e-10
1.94208e-10
-3.76218e-11
3.06016e-11
2.73761e-12
-2.62919e-12
4.71628e-12
1.07336e-11
-5.3397e-12
-2.08709e-12
)
;

boundaryField
{
    movingWall
    {
        type            extrapolatedCalculated;
        value           nonuniform List<scalar> 
20
(
-2.3453e-05
2.8159e-05
-6.99527e-06
2.63823e-06
-6.62501e-07
2.31648e-07
-6.39785e-08
2.05181e-08
-5.92961e-09
1.94064e-09
-5.00929e-10
1.94208e-10
-3.76218e-11
3.06016e-11
2.73761e-12
-2.62919e-12
4.71628e-12
1.07336e-11
-5.3397e-12
-2.08709e-12
)
;
    }
    fixedWalls
    {
        type            extrapolatedCalculated;
        value           nonuniform List<scalar> 
60
(
-7.23911e-07
9.41651e-07
-2.73524e-06
2.09589e-06
-3.4855e-06
3.06023e-06
-1.31886e-06
3.17967e-07
4.34325e-06
-1.1824e-05
3.02521e-05
-4.73135e-05
5.34707e-05
-5.25246e-05
4.98358e-05
-4.32849e-05
4.30359e-05
-2.11663e-05
2.29933e-05
-2.3453e-05
9.86624e-12
7.15573e-12
1.01102e-11
4.71628e-12
8.40257e-12
1.57209e-12
5.9089e-12
-1.65341e-12
2.95445e-12
-4.60786e-12
1.0842e-13
-6.50521e-12
-2.11419e-12
-6.88468e-12
-3.38813e-12
-6.451e-12
-5.25838e-12
-5.39391e-12
-2.87314e-12
-2.08709e-12
-7.23911e-07
-3.5447e-07
-3.22456e-08
-2.15488e-08
-8.988e-09
1.32513e-09
-9.35015e-10
3.6527e-10
-1.28682e-10
4.84878e-11
-1.0447e-11
1.23529e-11
6.65523e-12
7.48848e-12
6.86377e-12
7.62828e-12
1.58377e-12
-7.60736e-13
5.82625e-12
9.86624e-12
)
;
    }
    frontAndBack
    {
        type            empty;
    }
}


// ************************************************************************* //
