/*--------------------------------*- C++ -*----------------------------------*\
| =========                 |                                                 |
| \\      /  F ield         | OpenFOAM: The Open Source CFD Toolbox           |
|  \\    /   O peration     | Version:  2506                                  |
|   \\  /    A nd           | Website:  www.openfoam.com                      |
|    \\/     M anipulation  |                                                 |
\*---------------------------------------------------------------------------*/
FoamFile
{
    version     2.0;
    format      ascii;
    arch        "LSB;label=32;scalar=64";
    class       volScalarField;
    location    "3.125";
    object      enstrophyField;
}
// * * * * * * * * * * * * * * * * * * * * * * * * * * * * * * * * * * * * * //

dimensions      [0 0 -2 0 0 0 0];

internalField   nonuniform List<scalar> 
400
(
3.55966e-10
4.26807e-10
2.25605e-11
1.24135e-12
6.76132e-14
3.62635e-15
1.82858e-16
2.26578e-17
8.05299e-19
3.74021e-18
2.42791e-18
1.90708e-18
1.1779e-18
6.49646e-19
3.00594e-19
1.14989e-19
3.25645e-20
4.25312e-21
1.5366e-23
2.55382e-22
4.28824e-10
4.67543e-10
2.49181e-11
1.32916e-12
7.06416e-14
3.80287e-15
1.94874e-16
1.17835e-17
4.07804e-19
5.77573e-20
4.34017e-22
1.65134e-22
3.37041e-21
6.52229e-21
8.86308e-21
7.86495e-21
5.94271e-21
9.49777e-21
5.32288e-21
8.89219e-23
6.07123e-10
5.78904e-10
3.07957e-11
1.63576e-12
8.73172e-14
4.57352e-15
2.5799e-16
1.10254e-17
1.12182e-18
2.60273e-21
1.06288e-20
6.94035e-22
5.75687e-21
1.59176e-20
2.27836e-20
2.11015e-20
1.6327e-20
2.62877e-20
1.49961e-20
3.11203e-22
8.32125e-10
7.53156e-10
3.98037e-11
2.10432e-12
1.10628e-13
5.95005e-15
2.92673e-16
1.98859e-17
3.94263e-19
1.64654e-19
7.50769e-22
2.2023e-22
1.31445e-20
3.1246e-20
4.52387e-20
4.19332e-20
3.27999e-20
5.1743e-20
2.96889e-20
7.58764e-22
1.14663e-09
1.05972e-09
5.60239e-11
2.95239e-12
1.56292e-13
8.06492e-15
4.56445e-16
1.80069e-17
2.14234e-18
1.9411e-22
2.17211e-20
2.70232e-21
2.08009e-20
5.29594e-20
7.48516e-20
6.98679e-20
5.5067e-20
8.53607e-20
4.96475e-20
1.61092e-21
1.9543e-09
1.59509e-09
8.45363e-11
4.47638e-12
2.35445e-13
1.26519e-14
6.20809e-16
4.19549e-17
8.33463e-19
3.34663e-19
7.30042e-22
1.5904e-21
3.5507e-20
7.92385e-20
1.12357e-19
1.05041e-19
8.3699e-20
1.26402e-19
7.42533e-20
2.98911e-21
2.76385e-09
2.40751e-09
1.2832e-10
6.81563e-12
3.63096e-13
1.89093e-14
1.06448e-15
4.41308e-17
4.66579e-18
8.14356e-21
3.4923e-20
9.3756e-21
4.77646e-20
1.12426e-19
1.55105e-19
1.4607e-19
1.17413e-19
1.7286e-19
1.02716e-19
5.06912e-21
4.07327e-09
3.65995e-09
1.95888e-10
1.0463e-11
5.55202e-13
2.99202e-14
1.49984e-15
9.64158e-17
2.48103e-18
6.19457e-19
2.94652e-22
5.69554e-21
7.16062e-20
1.46323e-19
2.02316e-19
1.90602e-19
1.54835e-19
2.21753e-19
1.32984e-19
7.85249e-21
6.05171e-09
5.58104e-09
3.02239e-10
1.63188e-11
8.82663e-13
4.69439e-14
2.63739e-15
1.19574e-16
1.04437e-17
9.87062e-20
5.00119e-20
2.55838e-20
8.4976e-20
1.85591e-19
2.48317e-19
2.35432e-19
1.92701e-19
2.68693e-19
1.62483e-19
1.12167e-20
8.05339e-09
8.12437e-09
4.44206e-10
2.42172e-11
1.31322e-12
7.19203e-14
3.74792e-15
2.306e-16
7.94655e-18
1.15825e-18
1.40168e-20
1.25398e-20
1.17048e-19
2.16155e-19
2.90992e-19
2.74991e-19
2.26763e-19
3.08507e-19
1.88575e-19
1.4912e-20
9.27948e-09
1.09858e-08
6.10988e-10
3.38296e-11
1.87337e-12
1.02516e-13
5.81659e-15
2.86444e-16
2.15636e-17
4.69307e-19
6.93068e-20
5.36161e-20
1.21067e-19
2.48495e-19
3.2138e-19
3.0515e-19
2.52585e-19
3.36051e-19
2.07809e-19
1.8376e-20
8.8262e-09
1.27827e-08
7.27492e-10
4.13772e-11
2.34456e-12
1.33569e-13
7.33792e-15
4.48946e-16
1.89973e-17
1.93945e-18
6.44821e-20
1.87715e-20
1.54307e-19
2.57406e-19
3.37975e-19
3.18041e-19
2.63992e-19
3.45561e-19
2.18152e-19
2.13466e-20
8.26987e-09
1.39263e-08
7.94306e-10
4.52554e-11
2.58263e-12
1.46256e-13
8.52143e-15
4.50004e-16
3.20321e-17
1.0642e-18
8.30446e-20
8.2126e-20
1.35784e-19
2.65983e-19
3.31924e-19
3.13471e-19
2.59771e-19
3.35641e-19
2.16313e-19
2.29524e-20
8.08629e-09
1.49419e-08
8.51964e-10
4.85434e-11
2.76184e-12
1.58249e-13
8.85607e-15
5.40035e-16
2.5358e-17
2.18268e-18
1.15838e-19
2.13819e-20
1.56494e-19
2.40001e-19
3.07508e-19
2.86173e-19
2.36926e-19
3.04059e-19
2.02165e-19
2.31664e-20
8.0071e-09
1.57673e-08
8.99143e-10
5.1242e-11
2.92654e-12
1.66383e-13
9.66374e-15
5.22947e-16
3.49397e-17
1.42756e-18
7.44557e-20
8.59319e-20
1.14713e-19
2.15754e-19
2.61073e-19
2.43914e-19
2.00986e-19
2.56367e-19
1.74183e-19
2.11793e-20
9.29801e-09
1.68503e-08
9.63103e-10
5.50608e-11
3.14825e-12
1.81014e-13
1.02514e-14
6.14455e-16
3.12289e-17
2.26912e-18
1.55094e-19
1.467e-20
1.16289e-19
1.63408e-19
2.05428e-19
1.88539e-19
1.55419e-19
1.97292e-19
1.36524e-19
1.73015e-20
6.82955e-09
1.64847e-08
9.35978e-10
5.31043e-11
3.01717e-12
1.70925e-13
9.80922e-15
5.38874e-16
3.35769e-17
1.61805e-18
6.47968e-20
6.55505e-20
6.62046e-20
1.2188e-19
1.42326e-19
1.31597e-19
1.0832e-19
1.3659e-19
9.49622e-20
1.20077e-20
7.65359e-09
1.7209e-08
9.77412e-10
5.54783e-11
3.14872e-12
1.79236e-13
1.01147e-14
5.88869e-16
3.13545e-17
1.99424e-18
1.41711e-19
3.30512e-21
5.00852e-20
6.3176e-20
7.87971e-20
7.04155e-20
5.74219e-20
7.53613e-20
5.69284e-20
7.11793e-21
1.27427e-08
1.91062e-08
1.09917e-09
6.32657e-11
3.64611e-12
2.10376e-13
1.21896e-14
7.00281e-16
4.16379e-17
2.3387e-18
1.15466e-19
2.79645e-20
8.54593e-21
2.14491e-20
2.27319e-20
1.89819e-20
1.37805e-20
2.32499e-20
2.53654e-20
3.66402e-21
1.21881e-08
1.92156e-08
1.2154e-09
6.85743e-11
4.66211e-12
2.42945e-13
2.33099e-14
4.05754e-16
3.60022e-16
2.69543e-17
3.83912e-17
1.53731e-17
8.88743e-18
4.07068e-18
1.77834e-18
6.62478e-19
2.04769e-19
3.97651e-20
2.36046e-21
8.31717e-22
)
;

boundaryField
{
    movingWall
    {
        type            calculated;
        value           nonuniform List<scalar> 
20
(
4.32453e-08
2.6222e-08
1.95524e-09
1.10136e-10
9.09449e-12
4.7391e-13
5.97288e-14
7.15095e-16
1.30539e-15
1.24068e-16
1.5801e-16
6.33398e-17
3.64232e-17
1.6502e-17
7.17077e-18
2.66671e-18
8.25756e-19
1.36379e-19
1.38793e-21
9.24298e-22
)
;
    }
    fixedWalls
    {
        type            calculated;
        value           nonuniform List<scalar> 
60
(
7.71552e-09
8.59976e-09
1.06368e-08
1.38581e-08
1.95076e-08
2.92266e-08
4.40489e-08
6.67804e-08
1.01266e-07
1.46596e-07
1.96708e-07
2.2722e-07
2.47933e-07
2.66328e-07
2.81392e-07
3.00015e-07
2.95517e-07
3.08258e-07
3.37806e-07
3.44332e-07
1.1002e-22
1.58731e-23
2.43133e-23
1.81031e-23
3.12275e-24
7.17854e-24
8.18556e-23
2.7912e-22
6.27933e-22
1.07814e-21
1.53678e-21
1.86935e-21
2.01801e-21
1.94926e-21
1.73082e-21
1.30557e-21
6.80776e-22
1.56296e-22
3.77916e-24
1.26747e-23
2.16807e-10
4.0644e-10
1.99521e-11
1.19599e-12
6.31044e-14
3.42918e-15
1.67549e-16
3.72416e-17
6.10799e-18
1.3127e-17
9.589e-18
7.28651e-18
4.51269e-18
2.45484e-18
1.11422e-18
4.15351e-19
1.14104e-19
9.78308e-21
1.2519e-21
8.05439e-22
)
;
    }
    frontAndBack
    {
        type            empty;
    }
}


// ************************************************************************* //
