/*--------------------------------*- C++ -*----------------------------------*\
| =========                 |                                                 |
| \\      /  F ield         | OpenFOAM: The Open Source CFD Toolbox           |
|  \\    /   O peration     | Version:  2506                                  |
|   \\  /    A nd           | Website:  www.openfoam.com                      |
|    \\/     M anipulation  |                                                 |
\*---------------------------------------------------------------------------*/
FoamFile
{
    version     2.0;
    format      ascii;
    arch        "LSB;label=32;scalar=64";
    class       volScalarField;
    location    "3.125";
    object      flowTypeField;
}
// * * * * * * * * * * * * * * * * * * * * * * * * * * * * * * * * * * * * * //

dimensions      [0 0 0 0 0 0 0];

internalField   nonuniform List<scalar> 
400
(
-0.135291
-0.0201076
-0.0440762
-0.0294549
-0.0637643
-0.0634463
-0.00220027
-0.52319
0.485075
-0.0394822
0.068762
0.0449411
0.0670116
0.0843461
0.114248
0.159873
0.260274
0.478861
0.866735
-0.0522867
-0.161125
-0.0144441
-0.0498426
-0.00705345
-0.0475169
-0.00769824
-0.0580629
0.104557
-0.464427
0.467751
0.927977
0.959558
0.832127
0.757013
0.679781
0.626774
0.581555
0.357373
0.0125321
0.163996
-0.212949
-0.0280535
-0.0820216
-0.0319144
-0.0923264
-0.106265
-0.0288283
-0.503102
0.229924
0.865921
0.765377
0.929905
0.803616
0.664521
0.554625
0.477342
0.423415
0.210834
-0.0131037
0.101775
-0.153623
-0.00190945
-0.0702007
0.0350521
-0.0784722
0.0436347
-0.0453177
0.105319
0.442553
0.476256
0.946379
0.965619
0.743207
0.58679
0.456317
0.377381
0.314174
0.120531
-0.00946858
0.0362134
-0.103701
0.0111142
-0.0580853
0.052465
-0.0460865
0.0269799
0.0680548
-0.00458245
0.251998
0.980883
0.771252
0.900977
0.712491
0.527855
0.389982
0.302516
0.243617
0.0898596
-0.0118477
0.0325458
-0.12006
0.0171608
-0.0729017
0.0761957
-0.0744393
0.0760127
0.0662316
0.00835469
0.577202
0.430951
0.962313
0.929078
0.668289
0.482241
0.33912
0.257836
0.19343
0.0577245
-0.00843938
0.0248965
-0.0506367
0.0511371
-0.0290943
0.134091
0.0110439
0.17321
0.155074
0.301586
0.157327
0.926926
0.748622
0.85556
0.642405
0.444789
0.303546
0.217899
0.157954
0.0502734
-0.00779301
0.0212526
-0.0334903
0.0584258
-0.0207022
0.143072
0.0203177
0.167834
0.212559
0.088253
0.598456
0.28971
0.980515
0.883097
0.603539
0.412285
0.27431
0.19534
0.132589
0.0359114
-0.00582094
0.0208988
-0.0200316
0.0702063
-0.00518249
0.162781
0.0452432
0.216148
0.19085
0.336595
0.184966
0.81925
0.709384
0.792268
0.579905
0.385523
0.253528
0.172366
0.112547
0.0340671
-0.00371697
0.0181299
0.00503994
0.0800546
0.0109421
0.175071
0.0718021
0.216779
0.271274
0.188115
0.573939
0.128855
0.887855
0.834722
0.543856
0.364666
0.237705
0.161496
0.100798
0.0278681
-0.00302342
0.0182432
0.0443769
0.0920175
0.0358426
0.194241
0.0882209
0.262907
0.237217
0.360767
0.320282
0.701131
0.666872
0.720728
0.534067
0.351051
0.231038
0.153029
0.092323
0.0283552
-0.000822972
0.0157828
0.104919
0.099377
0.0638508
0.196643
0.121759
0.260632
0.282306
0.291596
0.518825
0.291527
0.780915
0.80763
0.508946
0.354229
0.233949
0.157506
0.0956114
0.0295908
-0.00157525
0.0140144
0.156282
0.101683
0.0827154
0.198397
0.148686
0.278647
0.291269
0.375434
0.406883
0.620554
0.693055
0.673424
0.538978
0.364544
0.252094
0.17109
0.10423
0.0347631
0.00117558
0.0106867
0.17905
0.0927688
0.0841478
0.181813
0.145024
0.259347
0.284155
0.317433
0.486774
0.371618
0.7187
0.818097
0.538452
0.406889
0.284997
0.201214
0.130509
0.0480113
0.000412396
0.00770239
0.190669
0.0825003
0.083706
0.161805
0.144037
0.243254
0.264661
0.350491
0.378785
0.579795
0.751549
0.697682
0.615588
0.451522
0.33883
0.247847
0.167747
0.0662296
0.00744108
0.00520717
0.13302
0.0565978
0.0570258
0.11545
0.0982431
0.17344
0.207878
0.21291
0.396679
0.357479
0.701567
0.876884
0.639775
0.53255
0.407859
0.313625
0.225892
0.099944
0.0127578
0.00863253
0.261096
0.0800542
0.0983611
0.150992
0.157951
0.241067
0.260663
0.368459
0.37673
0.594738
0.826289
0.774918
0.741942
0.600455
0.495484
0.395481
0.299518
0.141524
0.0271847
0.0165049
0.204361
0.0434968
0.0661452
0.0753582
0.103829
0.109984
0.190739
0.100104
0.392111
0.376594
0.784805
0.950722
0.788197
0.713075
0.611973
0.526648
0.436926
0.240124
0.036984
0.00762955
-0.0111206
-0.000857221
-0.00455053
0.0054295
-0.0217841
0.0249035
-0.0285831
0.067084
0.203779
0.452876
0.823283
0.873707
0.913874
0.831107
0.779706
0.729903
0.683446
0.47009
0.1014
-0.054595
0.00792148
0.00688502
0.00478369
0.0238028
-0.00539687
0.0928406
-0.102691
0.454758
-0.621225
0.352834
-0.0675506
0.0991461
0.0532514
0.0940108
0.108592
0.148096
0.222878
0.376137
0.554446
-0.289169
)
;

boundaryField
{
    movingWall
    {
        type            calculated;
        value           nonuniform List<scalar> 
20
(
0.599059
0.192855
0.116626
0.150035
0.0492376
0.13043
-0.106795
0.466964
-0.27517
0.206466
-0.0565554
0.0293136
-0.000886877
0.0157647
0.0150597
0.0267221
0.0560394
0.161293
0.664385
-0.339527
)
;
    }
    fixedWalls
    {
        type            calculated;
        value           nonuniform List<scalar> 
60
(
-0.0264185
-0.0290425
-0.0429456
-0.0148922
-0.00142009
0.00820603
0.0447886
0.0537241
0.0689615
0.0814931
0.0977345
0.109187
0.11146
0.101721
0.090551
0.0645901
0.0856061
0.0472163
0.00844856
0.0125306
0.560957
0.789431
0.735635
0.747395
0.87803
0.798273
0.446617
0.207714
0.108567
0.0661455
0.0533766
0.050244
0.0506439
0.0558804
0.0617841
0.0989137
0.203222
0.470261
0.867375
0.624919
0.785218
0.255009
0.280338
0.24762
0.242763
0.25064
0.256153
-0.0971604
0.261045
-0.0205584
0.0330213
0.0145403
0.0199155
0.0206063
0.0267596
0.0413094
0.086201
0.300055
0.410726
-0.0878549
)
;
    }
    frontAndBack
    {
        type            empty;
    }
}


// ************************************************************************* //
