/*--------------------------------*- C++ -*----------------------------------*\
| =========                 |                                                 |
| \\      /  F ield         | OpenFOAM: The Open Source CFD Toolbox           |
|  \\    /   O peration     | Version:  2506                                  |
|   \\  /    A nd           | Website:  www.openfoam.com                      |
|    \\/     M anipulation  |                                                 |
\*---------------------------------------------------------------------------*/
FoamFile
{
    version     2.0;
    format      ascii;
    arch        "LSB;label=32;scalar=64";
    class       surfaceScalarField;
    location    "3.125";
    object      fluxField;
}
// * * * * * * * * * * * * * * * * * * * * * * * * * * * * * * * * * * * * * //

dimensions      [0 3 -1 0 0 0 0];

oriented        oriented;

internalField   nonuniform List<scalar> 
760
(
-5e-05
-3.37418e-13
-5e-05
6.81458e-14
-5e-05
-1.66718e-14
-5e-05
2.47814e-15
-5e-05
-1.39701e-15
-5e-05
-3.15931e-16
-5e-05
-3.47805e-16
-5e-05
-1.56335e-16
-5e-05
-5.74527e-17
-5e-05
2.29707e-17
-5e-05
7.10598e-17
-5e-05
9.67023e-17
-5e-05
1.04365e-16
-5e-05
9.86846e-17
-5e-05
8.40475e-17
-5e-05
6.5543e-17
-5e-05
4.92799e-17
-5e-05
3.26137e-17
-5e-05
5.31903e-18
-4.55029e-19
-5e-05
7.16942e-13
-5e-05
-1.3594e-13
-5e-05
2.89939e-14
-5e-05
-7.09948e-15
-5e-05
-4.33714e-16
-5e-05
-1.13461e-15
-5e-05
-6.12919e-16
-5e-05
-3.03729e-16
-5e-05
-9.19228e-17
-5e-05
6.46284e-17
-5e-05
1.56382e-16
-5e-05
2.04166e-16
-5e-05
2.16393e-16
-5e-05
2.02683e-16
-5e-05
1.71768e-16
-5e-05
1.33285e-16
-5e-05
9.94227e-17
-5e-05
6.64235e-17
-5e-05
1.06791e-17
-6.81252e-19
-5e-05
-1.14756e-12
-5e-05
2.26846e-13
-5e-05
-5.75388e-14
-5e-05
7.39569e-15
-5e-05
-4.38141e-15
-5e-05
-1.01694e-15
-5e-05
-9.01119e-16
-5e-05
-3.76932e-16
-5e-05
-7.21519e-17
-5e-05
1.39506e-16
-5e-05
2.68048e-16
-5e-05
3.2829e-16
-5e-05
3.39749e-16
-5e-05
3.13778e-16
-5e-05
2.64055e-16
-5e-05
2.04072e-16
-5e-05
1.51282e-16
-5e-05
1.00733e-16
-5e-05
1.7235e-17
-6.62825e-19
-5e-05
1.85481e-12
-5e-05
-4.22589e-13
-5e-05
9.29928e-14
-5e-05
-2.66626e-14
-5e-05
2.44954e-15
-5e-05
-2.95974e-15
-5e-05
-6.287e-16
-5e-05
-4.34185e-16
-5e-05
3.8224e-17
-5e-05
2.64207e-16
-5e-05
4.14852e-16
-5e-05
4.75168e-16
-5e-05
4.77407e-16
-5e-05
4.33752e-16
-5e-05
3.6171e-16
-5e-05
2.78115e-16
-5e-05
2.0508e-16
-5e-05
1.36098e-16
-5e-05
2.50001e-17
-3.52695e-19
-5e-05
-2.31714e-12
-5e-05
4.53018e-13
-5e-05
-1.1251e-13
-5e-05
1.50413e-14
-5e-05
-6.70914e-15
-5e-05
-9.94264e-16
-5e-05
-8.18156e-16
-5e-05
-2.01635e-16
-5e-05
2.1751e-16
-5e-05
4.55843e-16
-5e-05
6.01334e-16
-5e-05
6.47431e-16
-5e-05
6.30384e-16
-5e-05
5.62616e-16
-5e-05
4.64433e-16
-5e-05
3.5502e-16
-5e-05
2.60297e-16
-5e-05
1.71862e-16
-5e-05
3.40798e-17
2.94076e-19
-5e-05
3.34245e-12
-5e-05
-7.75645e-13
-5e-05
1.75322e-13
-5e-05
-4.63948e-14
-5e-05
7.2269e-15
-5e-05
-3.6054e-15
-5e-05
1.01506e-16
-5e-05
-9.43258e-18
-5e-05
5.22354e-16
-5e-05
7.0713e-16
-5e-05
8.26724e-16
-5e-05
8.43076e-16
-5e-05
7.95982e-16
-5e-05
6.98067e-16
-5e-05
5.70201e-16
-5e-05
4.33201e-16
-5e-05
3.15685e-16
-5e-05
2.07437e-16
-5e-05
4.41973e-17
1.28045e-18
-5e-05
-4.09108e-12
-5e-05
9.11118e-13
-5e-05
-2.19231e-13
-5e-05
4.46506e-14
-5e-05
-1.23969e-14
-5e-05
1.8513e-15
-5e-05
-3.75724e-16
-5e-05
6.92561e-16
-5e-05
8.39039e-16
-5e-05
1.02696e-15
-5e-05
1.07949e-15
-5e-05
1.05506e-15
-5e-05
9.68289e-16
-5e-05
8.35311e-16
-5e-05
6.75415e-16
-5e-05
5.10115e-16
-5e-05
3.69557e-16
-5e-05
2.41479e-16
-5e-05
5.5049e-17
2.55082e-18
-5e-05
5.01677e-12
-5e-05
-1.15431e-12
-5e-05
2.68591e-13
-5e-05
-6.30004e-14
-5e-05
1.36934e-14
-5e-05
-2.76036e-15
-5e-05
1.51985e-15
-5e-05
9.84911e-16
-5e-05
1.32454e-15
-5e-05
1.35698e-15
-5e-05
1.35134e-15
-5e-05
1.26965e-15
-5e-05
1.13822e-15
-5e-05
9.67399e-16
-5e-05
7.75033e-16
-5e-05
5.82115e-16
-5e-05
4.19368e-16
-5e-05
2.72736e-16
-5e-05
6.60127e-17
4.0016e-18
-5e-05
-5.76286e-12
-5e-05
1.34632e-12
-5e-05
-3.24681e-13
-5e-05
7.38645e-14
-5e-05
-1.63528e-14
-5e-05
5.62531e-15
-5e-05
7.66561e-16
-5e-05
1.97431e-15
-5e-05
1.70139e-15
-5e-05
1.71574e-15
-5e-05
1.60931e-15
-5e-05
1.47222e-15
-5e-05
1.29383e-15
-5e-05
1.08594e-15
-5e-05
8.63068e-16
-5e-05
6.45114e-16
-5e-05
4.62518e-16
-5e-05
2.99413e-16
-5e-05
7.65331e-17
5.46102e-18
-5e-05
5.87262e-12
-5e-05
-1.49141e-12
-5e-05
3.63083e-13
-5e-05
-8.08686e-14
-5e-05
2.53912e-14
-5e-05
-1.72394e-15
-5e-05
3.83385e-15
-5e-05
2.07041e-15
-5e-05
2.22623e-15
-5e-05
1.99114e-15
-5e-05
1.84179e-15
-5e-05
1.64218e-15
-5e-05
1.42329e-15
-5e-05
1.18213e-15
-5e-05
9.33359e-16
-5e-05
6.94761e-16
-5e-05
4.96071e-16
-5e-05
3.20129e-16
-5e-05
8.58367e-17
6.73483e-18
-5e-05
-3.78385e-12
-5e-05
1.21412e-12
-5e-05
-2.6363e-13
-5e-05
9.14694e-14
-5e-05
-1.43044e-14
-5e-05
9.13685e-15
-5e-05
1.84709e-15
-5e-05
3.04993e-15
-5e-05
2.38314e-15
-5e-05
2.24931e-15
-5e-05
2.00315e-15
-5e-05
1.76918e-15
-5e-05
1.51459e-15
-5e-05
1.2483e-15
-5e-05
9.80182e-16
-5e-05
7.27164e-16
-5e-05
5.17552e-16
-5e-05
3.33186e-16
-5e-05
9.33787e-17
7.64737e-18
-5e-05
2.6019e-12
-5e-05
-7.72174e-13
-5e-05
1.93883e-13
-5e-05
-5.03046e-14
-5e-05
1.94591e-14
-5e-05
-4.09725e-16
-5e-05
4.48781e-15
-5e-05
2.57746e-15
-5e-05
2.71698e-15
-5e-05
2.33668e-15
-5e-05
2.11277e-15
-5e-05
1.83554e-15
-5e-05
1.56164e-15
-5e-05
1.27795e-15
-5e-05
9.9903e-16
-5e-05
7.38889e-16
-5e-05
5.2458e-16
-5e-05
3.37509e-16
-5e-05
9.83776e-17
8.10895e-18
-5e-05
-2.06489e-12
-5e-05
5.77776e-13
-5e-05
-1.38414e-13
-5e-05
4.20029e-14
-5e-05
-7.12637e-15
-5e-05
6.01445e-15
-5e-05
2.32959e-15
-5e-05
3.11976e-15
-5e-05
2.61425e-15
-5e-05
2.42347e-15
-5e-05
2.12867e-15
-5e-05
1.84789e-15
-5e-05
1.55728e-15
-5e-05
1.26767e-15
-5e-05
9.86469e-16
-5e-05
7.27666e-16
-5e-05
5.15625e-16
-5e-05
3.31696e-16
-5e-05
1.00235e-16
8.11694e-18
-5e-05
1.5977e-12
-5e-05
-4.52363e-13
-5e-05
1.09131e-13
-5e-05
-3.13547e-14
-5e-05
1.11784e-14
-5e-05
5.10016e-16
-5e-05
3.81399e-15
-5e-05
2.71268e-15
-5e-05
2.73454e-15
-5e-05
2.3691e-15
-5e-05
2.09926e-15
-5e-05
1.79359e-15
-5e-05
1.50219e-15
-5e-05
1.21406e-15
-5e-05
9.40632e-16
-5e-05
6.91722e-16
-5e-05
4.89276e-16
-5e-05
3.15021e-16
-5e-05
9.8184e-17
7.74564e-18
-5e-05
-1.14344e-12
-5e-05
2.21059e-13
-5e-05
-5.1319e-14
-5e-05
9.81343e-15
-5e-05
1.62905e-15
-5e-05
3.2934e-15
-5e-05
3.34981e-15
-5e-05
2.92152e-15
-5e-05
2.67289e-15
-5e-05
2.30337e-15
-5e-05
1.9925e-15
-5e-05
1.68029e-15
-5e-05
1.39151e-15
-5e-05
1.11587e-15
-5e-05
8.59867e-16
-5e-05
6.3015e-16
-5e-05
4.44921e-16
-5e-05
2.86587e-16
-5e-05
9.15746e-17
7.03357e-18
-5e-05
1.00417e-12
-5e-05
-4.04252e-13
-5e-05
1.07465e-13
-5e-05
-3.26505e-14
-5e-05
1.53518e-14
-5e-05
6.41107e-16
-5e-05
4.70217e-15
-5e-05
2.74389e-15
-5e-05
2.6824e-15
-5e-05
2.12978e-15
-5e-05
1.81491e-15
-5e-05
1.49304e-15
-5e-05
1.22178e-15
-5e-05
9.70156e-16
-5e-05
7.43241e-16
-5e-05
5.42725e-16
-5e-05
3.82776e-16
-5e-05
2.46886e-16
-5e-05
8.04737e-17
5.74216e-18
-5e-05
-7.37375e-13
-5e-05
1.74796e-13
-5e-05
-2.6414e-14
-5e-05
2.12584e-14
-5e-05
5.30273e-15
-5e-05
6.57761e-15
-5e-05
3.88339e-15
-5e-05
3.19263e-15
-5e-05
2.35648e-15
-5e-05
1.90065e-15
-5e-05
1.51932e-15
-5e-05
1.23474e-15
-5e-05
9.91358e-16
-5e-05
7.81052e-16
-5e-05
5.94518e-16
-5e-05
4.33153e-16
-5e-05
3.05514e-16
-5e-05
1.97593e-16
-5e-05
6.56678e-17
3.58063e-18
-5e-05
1.63954e-13
-5e-05
2.78852e-13
-5e-05
-4.73789e-14
-5e-05
6.16627e-14
-5e-05
-2.57705e-15
-5e-05
1.23042e-14
-5e-05
2.3119e-15
-5e-05
3.34817e-15
-5e-05
1.71376e-15
-5e-05
1.50787e-15
-5e-05
1.09912e-15
-5e-05
8.95343e-16
-5e-05
7.02105e-16
-5e-05
5.50309e-16
-5e-05
4.16008e-16
-5e-05
3.02471e-16
-5e-05
2.13759e-16
-5e-05
1.4044e-16
-5e-05
4.91446e-17
1.00749e-18
-5e-05
-6.86752e-13
-5e-05
7.93407e-13
-5e-05
-1.81568e-13
-5e-05
1.08012e-13
-5e-05
-2.11603e-14
-5e-05
1.46322e-14
-5e-05
-7.21987e-16
-5e-05
2.68037e-15
-5e-05
7.45801e-16
-5e-05
8.92636e-16
-5e-05
5.61279e-16
-5e-05
4.73904e-16
-5e-05
3.59936e-16
-5e-05
2.8223e-16
-5e-05
2.11538e-16
-5e-05
1.53329e-16
-5e-05
1.09119e-16
-5e-05
7.47247e-17
-5e-05
2.84477e-17
-4.01187e-19
-5e-05
-5e-05
-5e-05
-5e-05
-5e-05
-5e-05
-5e-05
-5e-05
-5e-05
-5e-05
-5e-05
-5e-05
-5e-05
-5e-05
-5e-05
-5e-05
-5e-05
-5e-05
-5e-05
)
;

boundaryField
{
    movingWall
    {
        type            calculated;
        value           uniform -0;
    }
    fixedWalls
    {
        type            calculated;
        value           nonuniform List<scalar> 
60
(
5e-05
5e-05
5e-05
5e-05
5e-05
5e-05
5e-05
5e-05
5e-05
5e-05
5e-05
5e-05
5e-05
5e-05
5e-05
5e-05
5e-05
5e-05
5e-05
5e-05
-5e-05
-5e-05
-5e-05
-5e-05
-5e-05
-5e-05
-5e-05
-5e-05
-5e-05
-5e-05
-5e-05
-5e-05
-5e-05
-5e-05
-5e-05
-5e-05
-5e-05
-5e-05
-5e-05
-5e-05
0
0
0
0
0
0
0
0
0
0
0
0
0
0
0
0
0
0
0
0
)
;
    }
    frontAndBack
    {
        type            empty;
    }
}


// ************************************************************************* //
