/*--------------------------------*- C++ -*----------------------------------*\
| =========                 |                                                 |
| \\      /  F ield         | OpenFOAM: The Open Source CFD Toolbox           |
|  \\    /   O peration     | Version:  2506                                  |
|   \\  /    A nd           | Website:  www.openfoam.com                      |
|    \\/     M anipulation  |                                                 |
\*---------------------------------------------------------------------------*/
FoamFile
{
    version     2.0;
    format      ascii;
    arch        "LSB;label=32;scalar=64";
    class       volTensorField;
    location    "3.125";
    object      gradU;
}
// * * * * * * * * * * * * * * * * * * * * * * * * * * * * * * * * * * * * * //

dimensions      [0 0 -1 0 0 0 0];

internalField   nonuniform List<tensor> 
400
(
(6.25762e-07 2.34478e-05 0 -3.23426e-06 -1.34967e-06 0 0 0 0)
(-6.27054e-07 -2.86324e-05 0 5.84228e-07 2.72583e-07 0 0 0 0)
(3.44415e-08 6.43319e-06 0 -2.84029e-07 -6.66871e-08 0 0 0 0)
(-3.14614e-08 -1.53021e-06 0 4.54493e-08 9.91258e-09 0 0 0 0)
(-3.39998e-09 3.45623e-07 0 -2.21087e-08 -5.58803e-09 0 0 0 0)
(2.58886e-09 -8.00266e-08 0 5.13627e-09 -1.26372e-09 0 0 0 0)
(4.56205e-10 1.90253e-08 0 -9.84456e-11 -1.39122e-09 0 0 0 0)
(9.90608e-10 -4.01695e-09 0 2.71473e-09 -6.25339e-10 0 0 0 0)
(1.01129e-10 1.1869e-09 0 2.45599e-09 -2.29811e-10 0 0 0 0)
(-4.33952e-11 -1.05928e-10 0 2.62911e-09 9.1883e-11 0 0 0 0)
(-2.94686e-10 1.29124e-10 0 2.33272e-09 2.84239e-10 0 0 0 0)
(-3.74456e-10 2.17772e-11 0 1.97477e-09 3.86809e-10 0 0 0 0)
(-4.10804e-10 6.38548e-12 0 1.54125e-09 4.17459e-10 0 0 0 0)
(-3.8725e-10 -1.98028e-11 0 1.12006e-09 3.94738e-10 0 0 0 0)
(-3.29326e-10 -3.11669e-11 0 7.44196e-10 3.3619e-10 0 0 0 0)
(-2.54544e-10 -3.2842e-11 0 4.46718e-10 2.62172e-10 0 0 0 0)
(-1.95536e-10 -3.42435e-11 0 2.2096e-10 1.9712e-10 0 0 0 0)
(-1.31216e-10 -4.34673e-11 0 4.8762e-11 1.30455e-10 0 0 0 0)
(-1.54499e-11 -3.13192e-11 0 -3.68629e-11 2.12761e-11 0 0 0 0)
(1.16823e-11 -5.49678e-12 0 1.71033e-11 -1.82012e-12 0 0 0 0)
(-3.27579e-06 -2.45249e-05 0 4.76074e-06 4.21744e-06 0 0 0 0)
(3.57728e-06 2.99154e-05 0 -6.63746e-07 -8.16342e-07 0 0 0 0)
(-5.7322e-07 -6.69587e-06 0 3.63609e-07 1.82663e-07 0 0 0 0)
(2.93382e-07 1.59131e-06 0 -3.91242e-08 -3.83105e-08 0 0 0 0)
(-3.6913e-08 -3.56799e-07 0 1.90774e-08 3.85317e-09 0 0 0 0)
(1.94215e-08 8.42234e-08 0 -2.98752e-09 -3.27472e-09 0 0 0 0)
(-2.87774e-09 -1.83869e-08 0 1.35517e-09 -1.06045e-09 0 0 0 0)
(1.5638e-09 5.17835e-09 0 3.2377e-10 -5.89578e-10 0 0 0 0)
(-1.86754e-10 -4.69674e-10 0 4.33437e-10 -1.37881e-10 0 0 0 0)
(-7.98786e-11 6.19978e-10 0 2.80104e-10 1.66631e-10 0 0 0 0)
(-3.59657e-10 1.65802e-10 0 1.95265e-10 3.41289e-10 0 0 0 0)
(-4.17011e-10 1.11443e-10 0 1.29616e-10 4.29854e-10 0 0 0 0)
(-4.43872e-10 1.54369e-12 0 8.36462e-11 4.48111e-10 0 0 0 0)
(-4.09801e-10 -6.14665e-11 0 5.27464e-11 4.15995e-10 0 0 0 0)
(-3.44017e-10 -1.014e-10 0 3.174e-11 3.50882e-10 0 0 0 0)
(-2.6872e-10 -1.06229e-10 0 1.91904e-11 2.70966e-10 0 0 0 0)
(-2.02421e-10 -9.74735e-11 0 1.15468e-11 2.00571e-10 0 0 0 0)
(-1.26608e-10 -1.32376e-10 0 5.44812e-12 1.35239e-10 0 0 0 0)
(-1.62088e-11 -1.00956e-10 0 2.22261e-12 2.14404e-11 0 0 0 0)
(8.07731e-12 -1.39592e-11 0 -6.23416e-13 -9.04891e-13 0 0 0 0)
(4.72275e-06 2.68489e-05 0 -7.99712e-06 -7.458e-06 0 0 0 0)
(-5.02418e-06 -3.26672e-05 0 1.35935e-06 1.45114e-06 0 0 0 0)
(6.59063e-07 7.21123e-06 0 -6.36791e-07 -3.46131e-07 0 0 0 0)
(-3.75993e-07 -1.70902e-06 0 9.97161e-08 5.79807e-08 0 0 0 0)
(3.27366e-08 3.80659e-07 0 -3.72341e-08 -1.57908e-08 0 0 0 0)
(-1.51334e-08 -8.49402e-08 0 1.07e-08 4.70682e-10 0 0 0 0)
(3.76747e-09 2.17104e-08 0 -1.00478e-09 -1.1528e-09 0 0 0 0)
(6.8901e-11 -3.09437e-09 0 1.60145e-09 -2.92812e-10 0 0 0 0)
(5.74627e-11 1.9431e-09 0 4.45228e-10 7.90835e-11 0 0 0 0)
(-2.81594e-10 3.73241e-10 0 4.4539e-10 2.9951e-10 0 0 0 0)
(-4.45146e-10 3.92348e-10 0 2.46548e-10 4.46664e-10 0 0 0 0)
(-4.86075e-10 1.28599e-10 0 1.65856e-10 4.96498e-10 0 0 0 0)
(-4.87701e-10 -7.47423e-12 0 9.98279e-11 4.93425e-10 0 0 0 0)
(-4.39129e-10 -1.17031e-10 0 6.13929e-11 4.4438e-10 0 0 0 0)
(-3.62882e-10 -1.76195e-10 0 3.72694e-11 3.69147e-10 0 0 0 0)
(-2.74737e-10 -1.83153e-10 0 2.22804e-11 2.83149e-10 0 0 0 0)
(-2.09278e-10 -1.69971e-10 0 1.07336e-11 2.07435e-10 0 0 0 0)
(-1.40513e-10 -2.22598e-10 0 6.69495e-12 1.37237e-10 0 0 0 0)
(-2.14943e-11 -1.67463e-10 0 5.71917e-12 2.62236e-11 0 0 0 0)
(1.00289e-11 -2.60323e-11 0 -1.0842e-12 7.37098e-14 0 0 0 0)
(-9.91356e-06 -3.05317e-05 0 1.02635e-05 1.20095e-05 0 0 0 0)
(1.09376e-05 3.70273e-05 0 -1.78396e-06 -2.59774e-06 0 0 0 0)
(-1.83286e-06 -8.08903e-06 0 8.33269e-07 6.02126e-07 0 0 0 0)
(8.92938e-07 1.92165e-06 0 -1.29844e-07 -1.36233e-07 0 0 0 0)
(-1.25929e-07 -4.14309e-07 0 5.60694e-08 2.73238e-08 0 0 0 0)
(5.56507e-08 9.88613e-08 0 -1.02262e-08 -7.77121e-09 0 0 0 0)
(-1.19763e-08 -1.91504e-08 0 5.04355e-09 1.08968e-09 0 0 0 0)
(3.01384e-09 6.41024e-09 0 1.03758e-10 -2.29012e-10 0 0 0 0)
(-1.34281e-09 1.22649e-10 0 1.01064e-09 4.41504e-10 0 0 0 0)
(-2.78532e-10 9.87559e-10 0 4.13704e-10 4.98806e-10 0 0 0 0)
(-6.39191e-10 3.62791e-10 0 3.24041e-10 5.87218e-10 0 0 0 0)
(-5.63731e-10 1.58204e-10 0 1.79192e-10 5.87509e-10 0 0 0 0)
(-5.48335e-10 -5.05742e-11 0 1.11564e-10 5.50633e-10 0 0 0 0)
(-4.72333e-10 -1.85745e-10 0 6.4239e-11 4.79895e-10 0 0 0 0)
(-3.83157e-10 -2.62631e-10 0 3.81639e-11 3.90622e-10 0 0 0 0)
(-2.95255e-10 -2.6794e-10 0 2.16569e-11 2.96172e-10 0 0 0 0)
(-2.18006e-10 -2.43385e-10 0 1.27394e-11 2.15196e-10 0 0 0 0)
(-1.31622e-10 -3.13588e-10 0 8.10441e-12 1.41462e-10 0 0 0 0)
(-2.40422e-11 -2.38119e-10 0 5.55654e-12 3.10605e-11 0 0 0 0)
(3.46945e-12 -4.02565e-11 0 -1.30104e-12 1.24052e-12 0 0 0 0)
(1.32023e-05 3.62606e-05 0 -1.16274e-05 -1.66878e-05 0 0 0 0)
(-1.44544e-05 -4.40745e-05 0 1.96281e-06 3.50243e-06 0 0 0 0)
(2.31318e-06 9.67274e-06 0 -9.12525e-07 -8.22012e-07 0 0 0 0)
(-1.15319e-06 -2.28382e-06 0 1.46153e-07 1.66816e-07 0 0 0 0)
(1.52355e-07 5.09121e-07 0 -4.99717e-08 -3.66347e-08 0 0 0 0)
(-6.61592e-08 -1.11174e-07 0 1.5829e-08 7.86191e-09 0 0 0 0)
(1.40975e-08 2.92526e-08 0 -9.6147e-10 -7.57821e-10 0 0 0 0)
(-3.96403e-09 -3.74254e-09 0 2.25861e-09 9.30202e-10 0 0 0 0)
(3.67409e-10 2.67092e-09 0 6.00973e-10 7.17144e-10 0 0 0 0)
(-9.68193e-10 5.18955e-10 0 5.38659e-10 7.66543e-10 0 0 0 0)
(-6.79659e-10 4.8105e-10 0 2.72623e-10 7.45928e-10 0 0 0 0)
(-6.98551e-10 9.20143e-11 0 1.65531e-10 6.89053e-10 0 0 0 0)
(-6.02654e-10 -1.15088e-10 0 8.88775e-11 6.11908e-10 0 0 0 0)
(-5.12584e-10 -2.77042e-10 0 4.84096e-11 5.15454e-10 0 0 0 0)
(-4.05437e-10 -3.59918e-10 0 2.69966e-11 4.10891e-10 0 0 0 0)
(-3.00134e-10 -3.5858e-10 0 1.5233e-11 3.07622e-10 0 0 0 0)
(-2.22885e-10 -3.24681e-10 0 7.18284e-12 2.20864e-10 0 0 0 0)
(-1.47723e-10 -4.06733e-10 0 6.451e-12 1.43057e-10 0 0 0 0)
(-3.08727e-11 -3.07684e-10 0 7.42678e-12 3.63185e-11 0 0 0 0)
(5.82759e-12 -5.83333e-11 0 -1.57209e-12 2.58708e-12 0 0 0 0)
(-1.95781e-05 -4.37171e-05 0 1.88017e-05 2.26383e-05 0 0 0 0)
(2.16525e-05 5.28931e-05 0 -3.58869e-06 -4.91465e-06 0 0 0 0)
(-3.64951e-06 -1.14246e-05 0 1.57815e-06 1.15133e-06 0 0 0 0)
(1.75549e-06 2.70703e-06 0 -2.85087e-07 -2.45744e-07 0 0 0 0)
(-2.56254e-07 -5.73263e-07 0 1.12951e-07 5.57442e-08 0 0 0 0)
(1.04661e-07 1.34738e-07 0 -2.43332e-08 -1.04445e-08 0 0 0 0)
(-2.55467e-08 -2.60821e-08 0 9.15452e-09 3.67865e-09 0 0 0 0)
(4.57628e-09 7.88521e-09 0 -1.27502e-09 7.68809e-10 0 0 0 0)
(-3.06276e-09 -4.10098e-11 0 1.25009e-09 1.21938e-09 0 0 0 0)
(-6.06882e-10 1.01634e-09 0 1.98219e-10 1.00515e-09 0 0 0 0)
(-1.01232e-09 2.85301e-10 0 2.4709e-10 9.01557e-10 0 0 0 0)
(-7.47503e-10 2.41847e-11 0 8.05833e-11 7.8258e-10 0 0 0 0)
(-6.65456e-10 -2.24174e-10 0 4.2311e-11 6.62389e-10 0 0 0 0)
(-5.34214e-10 -3.86762e-10 0 1.13299e-11 5.41806e-10 0 0 0 0)
(-4.16334e-10 -4.70463e-10 0 3.57787e-12 4.2307e-10 0 0 0 0)
(-3.15015e-10 -4.57967e-10 0 3.79471e-13 3.12721e-10 0 0 0 0)
(-2.26788e-10 -4.0795e-10 0 1.19262e-12 2.21553e-10 0 0 0 0)
(-1.31405e-10 -4.98134e-10 0 4.66207e-12 1.42298e-10 0 0 0 0)
(-3.20653e-11 -3.78589e-10 0 6.77626e-12 4.04701e-11 0 0 0 0)
(-2.38524e-12 -7.91621e-11 0 -1.84314e-12 3.94549e-12 0 0 0 0)
(2.84153e-05 5.39843e-05 0 -2.03642e-05 -2.97341e-05 0 0 0 0)
(-3.16779e-05 -6.55615e-05 0 3.82884e-06 6.74705e-06 0 0 0 0)
(5.61677e-06 1.43416e-05 0 -1.67833e-06 -1.57821e-06 0 0 0 0)
(-2.61839e-06 -3.37941e-06 0 3.12645e-07 3.64181e-07 0 0 0 0)
(4.13109e-07 7.4442e-07 0 -1.07748e-07 -7.84951e-08 0 0 0 0)
(-1.69955e-07 -1.6324e-07 0 3.12301e-08 2.18268e-08 0 0 0 0)
(3.71556e-08 4.0466e-08 0 -5.6748e-09 -1.90892e-09 0 0 0 0)
(-1.18685e-08 -6.20181e-09 0 3.19295e-09 2.80797e-09 0 0 0 0)
(1.84065e-09 2.90726e-09 0 -1.47506e-10 1.26674e-09 0 0 0 0)
(-1.97119e-09 2.01136e-10 0 3.28757e-10 1.27934e-09 0 0 0 0)
(-7.97295e-10 2.58484e-10 0 -5.80048e-12 1.01107e-09 0 0 0 0)
(-9.03303e-10 -1.47154e-10 0 -1.02186e-11 8.47924e-10 0 0 0 0)
(-6.71934e-10 -3.55861e-10 0 -4.67833e-11 6.89229e-10 0 0 0 0)
(-5.51317e-10 -5.16361e-10 0 -4.21755e-11 5.48977e-10 0 0 0 0)
(-4.16415e-10 -5.89003e-10 0 -3.20382e-11 4.20856e-10 0 0 0 0)
(-3.02547e-10 -5.60097e-10 0 -1.9597e-11 3.07656e-10 0 0 0 0)
(-2.18575e-10 -4.95105e-10 0 -1.05168e-11 2.15491e-10 0 0 0 0)
(-1.42085e-10 -5.87816e-10 0 1.6263e-13 1.36168e-10 0 0 0 0)
(-3.73508e-11 -4.46037e-10 0 7.20994e-12 4.3407e-11 0 0 0 0)
(8.40257e-13 -1.02749e-10 0 -2.05998e-12 5.08148e-12 0 0 0 0)
(-3.61134e-05 -6.67042e-05 0 2.3554e-05 3.64314e-05 0 0 0 0)
(4.03383e-05 8.1049e-05 0 -4.50746e-06 -8.26172e-06 0 0 0 0)
(-7.16571e-06 -1.78075e-05 0 1.98581e-06 1.95129e-06 0 0 0 0)
(3.32607e-06 4.20675e-06 0 -3.67742e-07 -4.30604e-07 0 0 0 0)
(-5.37668e-07 -9.15617e-07 0 1.38139e-07 1.04361e-07 0 0 0 0)
(2.06734e-07 2.11324e-07 0 -3.32985e-08 -1.84466e-08 0 0 0 0)
(-5.35838e-08 -4.51009e-08 0 9.66845e-09 7.58228e-09 0 0 0 0)
(1.01035e-08 1.10609e-08 0 -2.82551e-09 1.1694e-09 0 0 0 0)
(-5.92695e-09 -1.56965e-09 0 6.57921e-10 1.942e-09 0 0 0 0)
(-4.6515e-10 7.60672e-10 0 -3.52393e-10 1.32008e-09 0 0 0 0)
(-1.35132e-09 -1.46113e-10 0 -1.21837e-10 1.08738e-09 0 0 0 0)
(-7.88486e-10 -2.97657e-10 0 -1.90928e-10 8.58365e-10 0 0 0 0)
(-6.97413e-10 -5.23121e-10 0 -1.44687e-10 6.79738e-10 0 0 0 0)
(-5.19495e-10 -6.55135e-10 0 -1.14166e-10 5.28348e-10 0 0 0 0)
(-3.93728e-10 -7.11784e-10 0 -7.56773e-11 3.98471e-10 0 0 0 0)
(-2.93521e-10 -6.63333e-10 0 -4.5916e-11 2.87999e-10 0 0 0 0)
(-2.06974e-10 -5.79438e-10 0 -2.2958e-11 1.99243e-10 0 0 0 0)
(-1.13733e-10 -6.70217e-10 0 -4.25549e-12 1.25027e-10 0 0 0 0)
(-3.4315e-11 -5.09676e-10 0 6.04443e-12 4.38549e-11 0 0 0 0)
(-7.48099e-12 -1.27651e-10 0 -2.33103e-12 5.80311e-12 0 0 0 0)
(4.74618e-05 8.2154e-05 0 -2.78615e-05 -4.31185e-05 0 0 0 0)
(-5.32461e-05 -0.000100042 0 5.60906e-06 1.00025e-05 0 0 0 0)
(9.75649e-06 2.21728e-05 0 -2.41336e-06 -2.37309e-06 0 0 0 0)
(-4.46607e-06 -5.22634e-06 0 4.86602e-07 5.4746e-07 0 0 0 0)
(7.47552e-07 1.15658e-06 0 -1.72078e-07 -1.20185e-07 0 0 0 0)
(-2.98427e-07 -2.60019e-07 0 4.63926e-08 3.35427e-08 0 0 0 0)
(6.76287e-08 6.0082e-08 0 -1.25457e-08 -3.01314e-09 0 0 0 0)
(-2.0879e-08 -1.18421e-08 0 3.62232e-09 3.9576e-09 0 0 0 0)
(4.3138e-09 3.05794e-09 0 -1.51233e-09 1.50741e-09 0 0 0 0)
(-2.751e-09 -6.53481e-10 0 -2.0917e-10 1.43503e-09 0 0 0 0)
(-6.35857e-10 -2.0323e-10 0 -5.19495e-10 1.03189e-09 0 0 0 0)
(-9.26125e-10 -5.54797e-10 0 -3.28595e-10 8.10269e-10 0 0 0 0)
(-5.95119e-10 -6.85878e-10 0 -2.73626e-10 6.22414e-10 0 0 0 0)
(-4.82334e-10 -7.97628e-10 0 -1.8838e-10 4.74151e-10 0 0 0 0)
(-3.48137e-10 -8.29352e-10 0 -1.24629e-10 3.52139e-10 0 0 0 0)
(-2.49827e-10 -7.59325e-10 0 -7.31294e-11 2.51997e-10 0 0 0 0)
(-1.76942e-10 -6.58077e-10 0 -3.72694e-11 1.726e-10 0 0 0 0)
(-1.13082e-10 -7.43204e-10 0 -1.01373e-11 1.06709e-10 0 0 0 0)
(-3.54263e-11 -5.65261e-10 0 4.79759e-12 4.20813e-11 0 0 0 0)
(-2.87314e-12 -1.52407e-10 0 -2.62919e-12 5.83769e-12 0 0 0 0)
(-5.83659e-05 -9.98201e-05 0 2.70924e-05 4.65419e-05 0 0 0 0)
(6.57865e-05 0.000121794 0 -5.67616e-06 -1.1351e-05 0 0 0 0)
(-1.22882e-05 -2.72626e-05 0 2.54364e-06 2.75105e-06 0 0 0 0)
(5.56735e-06 6.45965e-06 0 -4.99833e-07 -6.18933e-07 0 0 0 0)
(-9.77878e-07 -1.42953e-06 0 1.91094e-07 1.66976e-07 0 0 0 0)
(3.66267e-07 3.28496e-07 0 -5.07669e-08 -2.9397e-08 0 0 0 0)
(-9.63542e-08 -7.4686e-08 0 1.18926e-08 1.22692e-08 0 0 0 0)
(2.1137e-08 1.55814e-08 0 -5.89416e-09 3.84382e-10 0 0 0 0)
(-9.75844e-09 -4.09222e-09 0 -1.05601e-10 2.09933e-09 0 0 0 0)
(5.27708e-10 2.8515e-10 0 -1.23686e-09 1.10161e-09 0 0 0 0)
(-1.47075e-09 -7.70872e-10 0 -6.0344e-10 9.29913e-10 0 0 0 0)
(-5.42616e-10 -7.07134e-10 0 -5.48769e-10 6.7985e-10 0 0 0 0)
(-5.57226e-10 -8.59239e-10 0 -3.75405e-10 5.17839e-10 0 0 0 0)
(-3.70445e-10 -9.2541e-10 0 -2.67906e-10 3.84763e-10 0 0 0 0)
(-2.78504e-10 -9.33938e-10 0 -1.7106e-10 2.81166e-10 0 0 0 0)
(-2.06188e-10 -8.42872e-10 0 -1.01264e-10 1.98587e-10 0 0 0 0)
(-1.43982e-10 -7.24726e-10 0 -5.12828e-11 1.34212e-10 0 0 0 0)
(-7.16116e-11 -8.00736e-10 0 -1.5233e-11 8.28649e-11 0 0 0 0)
(-2.67798e-11 -6.10547e-10 0 3.57787e-12 3.72145e-11 0 0 0 0)
(-9.70361e-12 -1.7557e-10 0 -2.87314e-12 5.09523e-12 0 0 0 0)
(6.8878e-05 0.000117345 0 -1.88863e-05 -3.86259e-05 0 0 0 0)
(-7.77948e-05 -0.000143833 0 4.39575e-06 1.08221e-05 0 0 0 0)
(1.49328e-05 3.29048e-05 0 -2.05201e-06 -2.50685e-06 0 0 0 0)
(-6.81862e-06 -7.81042e-06 0 4.15107e-07 6.89352e-07 0 0 0 0)
(1.19662e-06 1.74611e-06 0 -1.89538e-07 -1.58783e-07 0 0 0 0)
(-4.77628e-07 -4.14726e-07 0 3.80793e-08 4.34432e-08 0 0 0 0)
(1.12501e-07 8.98634e-08 0 -1.79939e-08 -7.94706e-09 0 0 0 0)
(-3.28772e-08 -2.20119e-08 0 1.92313e-09 3.91811e-09 0 0 0 0)
(8.97107e-09 3.77517e-09 0 -2.79196e-09 6.27647e-10 0 0 0 0)
(-3.24884e-09 -1.8229e-09 0 -8.5408e-10 1.03268e-09 0 0 0 0)
(5.22585e-11 -6.24995e-10 0 -9.97303e-10 6.45434e-10 0 0 0 0)
(-6.98091e-10 -9.66871e-10 0 -6.39408e-10 5.08008e-10 0 0 0 0)
(-3.14283e-10 -9.80964e-10 0 -4.88894e-10 3.65226e-10 0 0 0 0)
(-2.77962e-10 -1.0343e-09 0 -3.29326e-10 2.64683e-10 0 0 0 0)
(-1.8155e-10 -1.01553e-09 0 -2.13805e-10 1.87291e-10 0 0 0 0)
(-1.29996e-10 -9.0628e-10 0 -1.25063e-10 1.29614e-10 0 0 0 0)
(-9.09104e-11 -7.738e-10 0 -6.30464e-11 8.59229e-11 0 0 0 0)
(-5.82488e-11 -8.40201e-10 0 -2.0383e-11 5.2227e-11 0 0 0 0)
(-2.30935e-11 -6.4303e-10 0 1.65341e-12 3.01681e-11 0 0 0 0)
(-3.55076e-12 -1.94717e-10 0 -3.00866e-12 3.6502e-12 0 0 0 0)
(-7.28565e-05 -0.000127624 0 5.23842e-06 2.5543e-05 0 0 0 0)
(8.26208e-05 0.000157913 0 -1.97851e-06 -7.94516e-06 0 0 0 0)
(-1.62688e-05 -3.73954e-05 0 7.48884e-07 1.83005e-06 0 0 0 0)
(7.42982e-06 8.80772e-06 0 -2.89222e-07 -5.67096e-07 0 0 0 0)
(-1.35491e-06 -2.07544e-06 0 8.99953e-08 1.35054e-07 0 0 0 0)
(5.3781e-07 4.79332e-07 0 -3.7523e-08 -3.81863e-08 0 0 0 0)
(-1.3251e-07 -1.14211e-07 0 6.9328e-09 1.05629e-08 0 0 0 0)
(3.63389e-08 2.41561e-08 0 -5.80872e-09 -1.88988e-09 0 0 0 0)
(-1.25357e-08 -6.97765e-09 0 -8.13667e-10 1.33536e-09 0 0 0 0)
(2.32236e-09 3.02936e-10 0 -1.66655e-09 3.49481e-10 0 0 0 0)
(-1.2561e-09 -1.29554e-09 0 -9.36425e-10 4.38482e-10 0 0 0 0)
(-3.42066e-11 -9.87342e-10 0 -7.93582e-10 2.65424e-10 0 0 0 0)
(-2.4709e-10 -1.10256e-09 0 -5.47034e-10 1.88169e-10 0 0 0 0)
(-9.53556e-11 -1.10334e-09 0 -3.8584e-10 1.18628e-10 0 0 0 0)
(-7.42136e-11 -1.06901e-09 0 -2.46846e-10 7.53941e-11 0 0 0 0)
(-5.54298e-11 -9.4424e-10 0 -1.46693e-10 4.69002e-11 0 0 0 0)
(-3.93565e-11 -8.02113e-10 0 -7.54876e-11 2.81144e-11 0 0 0 0)
(-6.91179e-12 -8.56491e-10 0 -2.51535e-11 1.72903e-11 0 0 0 0)
(-9.37835e-12 -6.59124e-10 0 1.40946e-12 1.99953e-11 0 0 0 0)
(-8.34836e-12 -2.09388e-10 0 -2.76472e-12 1.84631e-12 0 0 0 0)
(7.21379e-05 0.000134943 0 6.33588e-06 -1.86672e-05 0 0 0 0)
(-8.22843e-05 -0.000167546 0 -6.54371e-07 5.3998e-06 0 0 0 0)
(1.66221e-05 4.02828e-05 0 4.25458e-07 -1.32919e-06 0 0 0 0)
(-7.47751e-06 -9.50541e-06 0 8.29875e-09 3.6923e-07 0 0 0 0)
(1.44832e-06 2.27502e-06 0 2.3006e-09 -1.06342e-07 0 0 0 0)
(-5.6069e-07 -5.39217e-07 0 1.62685e-09 2.56967e-08 0 0 0 0)
(1.44216e-07 1.2616e-07 0 -4.3885e-09 -8.63287e-09 0 0 0 0)
(-4.06236e-08 -3.12395e-08 0 -1.23932e-09 2.16919e-09 0 0 0 0)
(1.31133e-08 6.01453e-09 0 -1.98948e-09 -4.10893e-10 0 0 0 0)
(-3.37162e-09 -2.71978e-09 0 -1.26087e-09 3.47161e-10 0 0 0 0)
(9.25231e-10 -7.09052e-10 0 -1.11659e-09 6.36307e-11 0 0 0 0)
(-3.08754e-10 -1.21718e-09 0 -8.11905e-10 4.94163e-11 0 0 0 0)
(9.34853e-11 -1.12776e-09 0 -6.06638e-10 -1.74368e-11 0 0 0 0)
(2.22261e-11 -1.14708e-09 0 -4.17716e-10 -4.11349e-11 0 0 0 0)
(5.75982e-11 -1.08726e-09 0 -2.72487e-10 -5.02437e-11 0 0 0 0)
(4.13352e-11 -9.53559e-10 0 -1.61763e-10 -4.48903e-11 0 0 0 0)
(3.06829e-11 -8.03409e-10 0 -8.26162e-11 -3.58212e-11 0 0 0 0)
(1.86212e-11 -8.48321e-10 0 -2.90024e-11 -2.32503e-11 0 0 0 0)
(-7.58942e-13 -6.58474e-10 0 -7.31836e-13 7.42979e-12 0 0 0 0)
(-2.1413e-12 -2.16558e-10 0 -2.30393e-12 3.19288e-14 0 0 0 0)
(-6.7175e-05 -0.000140891 0 -1.37198e-05 1.46504e-05 0 0 0 0)
(7.67103e-05 0.000175251 0 2.38228e-06 -4.12055e-06 0 0 0 0)
(-1.56061e-05 -4.24259e-05 0 -1.14726e-06 9.90179e-07 0 0 0 0)
(7.00666e-06 1.00306e-05 0 1.77306e-07 -2.9343e-07 0 0 0 0)
(-1.36158e-06 -2.41898e-06 0 -6.87268e-08 7.3219e-08 0 0 0 0)
(5.31121e-07 5.77041e-07 0 1.44596e-08 -2.20178e-08 0 0 0 0)
(-1.35376e-07 -1.37739e-07 0 -4.65161e-09 5.93759e-09 0 0 0 0)
(3.87379e-08 3.23781e-08 0 -4.86319e-10 -1.62834e-09 0 0 0 0)
(-1.25572e-08 -8.79968e-09 0 -1.67816e-09 4.81162e-10 0 0 0 0)
(3.1952e-09 7.77459e-10 0 -1.31188e-09 -2.17485e-10 0 0 0 0)
(-8.07026e-10 -1.59329e-09 0 -1.11196e-09 -1.17648e-10 0 0 0 0)
(4.75748e-10 -1.06841e-09 0 -8.61615e-10 -2.17207e-10 0 0 0 0)
(1.47072e-10 -1.19312e-09 0 -6.33662e-10 -2.20337e-10 0 0 0 0)
(2.38796e-10 -1.13615e-09 0 -4.4333e-10 -2.14454e-10 0 0 0 0)
(1.81766e-10 -1.07276e-09 0 -2.88533e-10 -1.8335e-10 0 0 0 0)
(1.34414e-10 -9.29818e-10 0 -1.73283e-10 -1.43777e-10 0 0 0 0)
(9.3404e-11 -7.80473e-10 0 -9.2103e-11 -1.05396e-10 0 0 0 0)
(7.49997e-11 -8.1324e-10 0 -3.34205e-11 -6.6699e-11 0 0 0 0)
(1.73472e-11 -6.35842e-10 0 2.71051e-14 -8.20399e-12 0 0 0 0)
(-5.39391e-12 -2.1685e-10 0 -1.5992e-12 -1.48519e-12 0 0 0 0)
(6.08003e-05 0.000145473 0 1.89254e-05 -1.09646e-05 0 0 0 0)
(-6.97118e-05 -0.000181206 0 -3.62584e-06 2.69369e-06 0 0 0 0)
(1.44171e-05 4.411e-05 0 1.70376e-06 -6.41799e-07 0 0 0 0)
(-6.39897e-06 -1.04224e-05 0 -2.98936e-07 1.64672e-07 0 0 0 0)
(1.28547e-06 2.54644e-06 0 1.27123e-07 -3.81973e-08 0 0 0 0)
(-4.96615e-07 -6.06499e-07 0 -2.96389e-08 1.11335e-08 0 0 0 0)
(1.2927e-07 1.46549e-07 0 7.52594e-09 -1.85673e-09 0 0 0 0)
(-3.76502e-08 -3.66959e-08 0 -4.35559e-09 8.35353e-10 0 0 0 0)
(1.22878e-08 7.42538e-09 0 -9.34013e-10 -2.4662e-10 0 0 0 0)
(-2.80535e-09 -3.31859e-09 0 -1.62888e-09 -2.62929e-10 0 0 0 0)
(1.37547e-09 -7.08774e-10 0 -1.09466e-09 -4.2707e-10 0 0 0 0)
(1.69515e-10 -1.31987e-09 0 -9.05309e-10 -4.53173e-10 0 0 0 0)
(5.11771e-10 -1.12501e-09 0 -6.46022e-10 -4.42739e-10 0 0 0 0)
(3.67301e-10 -1.11009e-09 0 -4.53197e-10 -3.92735e-10 0 0 0 0)
(3.27646e-10 -1.01658e-09 0 -2.93981e-10 -3.2306e-10 0 0 0 0)
(2.37766e-10 -8.75605e-10 0 -1.77159e-10 -2.46288e-10 0 0 0 0)
(1.70626e-10 -7.26332e-10 0 -9.23198e-11 -1.7742e-10 0 0 0 0)
(1.10751e-10 -7.51128e-10 0 -3.50739e-11 -1.13738e-10 0 0 0 0)
(3.10082e-11 -5.9326e-10 0 -3.03577e-12 -2.64377e-11 0 0 0 0)
(-5.42101e-13 -2.06869e-10 0 -1.0571e-12 -2.84826e-12 0 0 0 0)
(-5.18754e-05 -0.000149162 0 -1.27949e-05 8.59044e-06 0 0 0 0)
(5.94887e-05 0.000185574 0 1.99668e-06 -2.50124e-06 0 0 0 0)
(-1.22792e-05 -4.4955e-05 0 -1.06638e-06 6.35137e-07 0 0 0 0)
(5.43003e-06 1.06342e-05 0 1.40284e-07 -1.69856e-07 0 0 0 0)
(-1.09228e-06 -2.57252e-06 0 -6.32337e-08 5.48909e-08 0 0 0 0)
(4.11524e-07 6.13382e-07 0 1.16944e-08 -1.06092e-08 0 0 0 0)
(-1.10093e-07 -1.48037e-07 0 -4.84847e-09 5.40943e-09 0 0 0 0)
(3.0278e-08 3.39882e-08 0 -1.06759e-09 -7.10495e-10 0 0 0 0)
(-9.83052e-09 -9.89796e-09 0 -1.99493e-09 3.8022e-11 0 0 0 0)
(3.03449e-09 5.9701e-10 0 -1.53331e-09 -6.94356e-10 0 0 0 0)
(-8.35378e-11 -1.78353e-09 0 -1.22659e-09 -7.10349e-10 0 0 0 0)
(9.24472e-10 -1.08408e-09 0 -9.1279e-10 -7.49014e-10 0 0 0 0)
(5.99211e-10 -1.13268e-09 0 -6.50413e-10 -6.78924e-10 0 0 0 0)
(5.90809e-10 -1.01647e-09 0 -4.44794e-10 -5.82871e-10 0 0 0 0)
(4.57804e-10 -9.26315e-10 0 -2.85335e-10 -4.66502e-10 0 0 0 0)
(3.36103e-10 -7.84178e-10 0 -1.70111e-10 -3.49703e-10 0 0 0 0)
(2.35407e-10 -6.47923e-10 0 -9.03954e-11 -2.4858e-10 0 0 0 0)
(1.64257e-10 -6.62257e-10 0 -3.40982e-11 -1.58801e-10 0 0 0 0)
(5.14183e-11 -5.24952e-10 0 -2.41235e-12 -4.44034e-11 0 0 0 0)
(-1.27394e-12 -1.87564e-10 0 -1.54499e-12 -5.16564e-12 0 0 0 0)
(5.00021e-05 0.000151562 0 3.46897e-05 -6.96619e-06 0 0 0 0)
(-5.79833e-05 -0.000189161 0 -7.58599e-06 2.31619e-06 0 0 0 0)
(1.25607e-05 4.64414e-05 0 3.17525e-06 -5.35517e-07 0 0 0 0)
(-5.39582e-06 -1.10026e-05 0 -6.96866e-07 2.15636e-07 0 0 0 0)
(1.15688e-06 2.70568e-06 0 2.49194e-07 -4.01962e-08 0 0 0 0)
(-4.3823e-07 -6.5598e-07 0 -7.13003e-08 2.3746e-08 0 0 0 0)
(1.16508e-07 1.56448e-07 0 1.63821e-08 -3.27511e-09 0 0 0 0)
(-3.47967e-08 -4.20673e-08 0 -9.23822e-09 1.79496e-09 0 0 0 0)
(1.18221e-08 7.44152e-09 0 -7.53222e-10 -1.30366e-09 0 0 0 0)
(-2.03694e-09 -4.06696e-09 0 -2.26804e-09 -9.16534e-10 0 0 0 0)
(1.99602e-09 -7.63432e-10 0 -1.12342e-09 -1.18234e-09 0 0 0 0)
(7.45606e-10 -1.28845e-09 0 -9.26369e-10 -1.03321e-09 0 0 0 0)
(9.79766e-10 -9.58864e-10 0 -5.94983e-10 -9.21672e-10 0 0 0 0)
(7.32379e-10 -8.97667e-10 0 -4.03947e-10 -7.56418e-10 0 0 0 0)
(6.02329e-10 -7.8341e-10 0 -2.49881e-10 -5.94893e-10 0 0 0 0)
(4.32759e-10 -6.57684e-10 0 -1.4466e-10 -4.38286e-10 0 0 0 0)
(3.06639e-10 -5.3543e-10 0 -6.99853e-11 -3.09046e-10 0 0 0 0)
(1.9868e-10 -5.46952e-10 0 -2.42861e-11 -1.97174e-10 0 0 0 0)
(6.35885e-11 -4.39625e-10 0 -3.82181e-12 -5.92239e-11 0 0 0 0)
(3.38813e-12 -1.573e-10 0 -2.33103e-12 -8.64614e-12 0 0 0 0)
(-2.47717e-05 -0.000153812 0 -3.009e-05 3.60531e-06 0 0 0 0)
(2.79742e-05 0.000192005 0 6.48402e-06 4.16225e-07 0 0 0 0)
(-5.39011e-06 -4.70555e-05 0 -2.84213e-06 -8.38596e-08 0 0 0 0)
(2.50397e-06 1.11295e-05 0 5.95891e-07 1.61617e-07 0 0 0 0)
(-4.66715e-07 -2.76441e-06 0 -2.54934e-07 -3.15191e-08 0 0 0 0)
(1.78712e-07 6.50303e-07 0 5.15777e-08 2.29062e-08 0 0 0 0)
(-4.80309e-08 -1.69988e-07 0 -2.77579e-08 -6.28593e-09 0 0 0 0)
(1.31426e-08 3.59597e-08 0 1.64148e-09 6.22145e-10 0 0 0 0)
(-2.86048e-09 -1.26095e-08 0 -4.69056e-09 -2.57089e-09 0 0 0 0)
(2.66432e-09 7.18331e-10 0 -1.27879e-09 -1.57112e-09 0 0 0 0)
(1.25819e-09 -1.9002e-09 0 -1.36783e-09 -1.6808e-09 0 0 0 0)
(1.45291e-09 -8.23413e-10 0 -7.42109e-10 -1.35759e-09 0 0 0 0)
(1.12161e-09 -8.55888e-10 0 -5.39391e-10 -1.15701e-09 0 0 0 0)
(9.3591e-10 -6.89693e-10 0 -3.34232e-10 -9.22969e-10 0 0 0 0)
(7.17173e-10 -6.08184e-10 0 -2.11203e-10 -7.14042e-10 0 0 0 0)
(5.1589e-10 -4.98332e-10 0 -1.23057e-10 -5.2273e-10 0 0 0 0)
(3.55754e-10 -4.06811e-10 0 -6.79253e-11 -3.67021e-10 0 0 0 0)
(2.30501e-10 -4.12435e-10 0 -2.42048e-11 -2.28613e-10 0 0 0 0)
(7.34005e-11 -3.36424e-10 0 1.00289e-12 -6.60925e-11 0 0 0 0)
(4.87891e-12 -1.19694e-10 0 -3.79471e-13 -1.02925e-11 0 0 0 0)
(2.63962e-05 0.000155583 0 -4.05816e-06 -3.40282e-06 0 0 0 0)
(-3.07354e-05 -0.00019285 0 2.62977e-06 2.05822e-06 0 0 0 0)
(6.67261e-06 4.61868e-05 0 -6.99749e-07 -5.36755e-07 0 0 0 0)
(-2.80862e-06 -1.09503e-05 0 2.98335e-07 1.85397e-07 0 0 0 0)
(6.12568e-07 2.56697e-06 0 -1.3344e-07 -7.4333e-08 0 0 0 0)
(-2.11054e-07 -6.30747e-07 0 1.79073e-08 9.31211e-09 0 0 0 0)
(6.65714e-08 1.34164e-07 0 -2.19743e-08 -1.21356e-08 0 0 0 0)
(-1.17293e-08 -3.83523e-08 0 -9.28185e-10 -2.6712e-09 0 0 0 0)
(8.90181e-09 5.24826e-09 0 -3.8773e-09 -3.87183e-09 0 0 0 0)
(1.28573e-09 -3.17687e-09 0 -1.01414e-09 -2.46093e-09 0 0 0 0)
(2.53264e-09 -5.499e-10 0 -1.03045e-09 -2.15138e-09 0 0 0 0)
(1.57413e-09 -7.64662e-10 0 -5.28169e-10 -1.68576e-09 0 0 0 0)
(1.3877e-09 -5.24247e-10 0 -3.93511e-10 -1.36867e-09 0 0 0 0)
(1.06057e-09 -4.54696e-10 0 -2.47578e-10 -1.07232e-09 0 0 0 0)
(8.13477e-10 -3.83171e-10 0 -1.69949e-10 -8.17879e-10 0 0 0 0)
(5.76037e-10 -3.10663e-10 0 -1.1582e-10 -5.96568e-10 0 0 0 0)
(4.05492e-10 -2.41313e-10 0 -7.52978e-11 -4.1856e-10 0 0 0 0)
(2.67662e-10 -2.46023e-10 0 -3.03848e-11 -2.6286e-10 0 0 0 0)
(8.73325e-11 -2.21305e-10 0 3.93023e-12 -8.27876e-11 0 0 0 0)
(2.76472e-12 -8.09149e-11 0 4.68917e-12 -5.63471e-12 0 0 0 0)
(-2.62e-05 -0.000155157 0 9.7194e-07 2.74701e-06 0 0 0 0)
(3.13326e-05 0.000194871 0 -1.16806e-06 -3.17363e-06 0 0 0 0)
(-7.72154e-06 -4.89283e-05 0 3.74724e-07 7.2627e-07 0 0 0 0)
(3.07028e-06 1.15919e-05 0 -1.19133e-07 -4.32048e-07 0 0 0 0)
(-7.47142e-07 -2.94049e-06 0 1.13068e-07 8.46412e-08 0 0 0 0)
(2.90177e-07 7.125e-07 0 1.54415e-08 -5.85287e-08 0 0 0 0)
(-6.68664e-08 -1.81971e-07 0 3.39449e-08 2.88795e-09 0 0 0 0)
(3.12396e-08 4.42234e-08 0 1.57364e-08 -1.07215e-08 0 0 0 0)
(-2.9464e-09 -1.23992e-08 0 1.44344e-08 -2.9832e-09 0 0 0 0)
(5.51119e-09 2.43878e-09 0 9.78102e-09 -3.57055e-09 0 0 0 0)
(1.74418e-09 -1.12503e-09 0 7.63753e-09 -2.24512e-09 0 0 0 0)
(2.08983e-09 -4.07099e-11 0 5.50422e-09 -1.89562e-09 0 0 0 0)
(1.40212e-09 -2.42449e-10 0 3.97357e-09 -1.43975e-09 0 0 0 0)
(1.15953e-09 -1.38898e-10 0 2.71441e-09 -1.12892e-09 0 0 0 0)
(8.48876e-10 -1.32434e-10 0 1.75348e-09 -8.46151e-10 0 0 0 0)
(6.10677e-10 -9.90119e-11 0 1.05206e-09 -6.13315e-10 0 0 0 0)
(4.41189e-10 -7.31031e-11 0 5.66848e-10 -4.36477e-10 0 0 0 0)
(3.09621e-10 -7.66629e-11 0 2.05348e-10 -2.98899e-10 0 0 0 0)
(1.08447e-10 -7.91986e-11 0 -1.04897e-11 -1.13791e-10 0 0 0 0)
(-3.68629e-12 -3.12713e-11 0 9.51387e-12 1.60475e-12 0 0 0 0)
)
;

boundaryField
{
    movingWall
    {
        type            extrapolatedCalculated;
        value           nonuniform List<tensor> 
20
(
(-2.62e-05 -0.000155157 0 0.000138936 0.000828886 0 0 0 0)
(3.13326e-05 0.000194871 0 -3.41358e-05 -0.000208259 0 0 0 0)
(-7.72154e-06 -4.89283e-05 0 1.36055e-05 4.94027e-05 0 0 0 0)
(3.07028e-06 1.15919e-05 0 -3.24963e-06 -1.2546e-05 0 0 0 0)
(-7.47142e-07 -2.94049e-06 0 1.32436e-06 3.0351e-06 0 0 0 0)
(2.90177e-07 7.125e-07 0 -2.6106e-07 -7.84086e-07 0 0 0 0)
(-6.68664e-08 -1.81971e-07 0 1.63655e-07 1.85098e-07 0 0 0 0)
(3.12396e-08 4.42234e-08 0 6.40554e-09 -5.62011e-08 0 0 0 0)
(-2.9464e-09 -1.23992e-08 0 3.86966e-08 8.20443e-09 0 0 0 0)
(5.51119e-09 2.43878e-09 0 1.81911e-08 -6.60438e-09 0 0 0 0)
(1.74418e-09 -1.12503e-09 0 1.66519e-08 -1.55069e-09 0 0 0 0)
(2.08983e-09 -4.07099e-11 0 1.12145e-08 -2.10426e-09 0 0 0 0)
(1.40212e-09 -2.42449e-10 0 8.29257e-09 -1.38785e-09 0 0 0 0)
(1.15953e-09 -1.38898e-10 0 5.606e-09 -1.13447e-09 0 0 0 0)
(8.48876e-10 -1.32434e-10 0 3.65459e-09 -8.32264e-10 0 0 0 0)
(6.10677e-10 -9.90119e-11 0 2.21041e-09 -6.04728e-10 0 0 0 0)
(4.41189e-10 -7.31031e-11 0 1.21201e-09 -4.36216e-10 0 0 0 0)
(3.09621e-10 -7.66629e-11 0 4.45599e-10 -3.12315e-10 0 0 0 0)
(1.08447e-10 -7.91986e-11 0 -2.65121e-11 -1.29564e-10 0 0 0 0)
(-3.68629e-12 -3.12713e-11 0 1.1724e-11 4.47906e-12 0 0 0 0)
)
;
    }
    fixedWalls
    {
        type            extrapolatedCalculated;
        value           nonuniform List<tensor> 
60
(
(2.62443e-06 0.000120987 0 -3.23426e-06 -1.34967e-06 0 0 0 0)
(-1.55615e-05 -0.000126386 0 4.76074e-06 4.21744e-06 0 0 0 0)
(2.16674e-05 0.000137857 0 -7.99712e-06 -7.458e-06 0 0 0 0)
(-4.75499e-05 -0.000156218 0 1.02635e-05 1.20095e-05 0 0 0 0)
(6.27213e-05 0.000185895 0 -1.16274e-05 -1.66878e-05 0 0 0 0)
(-9.40594e-05 -0.000222969 0 1.88017e-05 2.26383e-05 0 0 0 0)
(0.000137928 0.000276448 0 -2.03642e-05 -2.97341e-05 0 0 0 0)
(-0.000175516 -0.000341906 0 2.3554e-05 3.64314e-05 0 0 0 0)
(0.000232144 0.000422174 0 -2.78615e-05 -4.31185e-05 0 0 0 0)
(-0.000286962 -0.00051438 0 2.70924e-05 4.65419e-05 0 0 0 0)
(0.000340513 0.000608342 0 -1.88863e-05 -3.86259e-05 0 0 0 0)
(-0.000362507 -0.000668883 0 5.23842e-06 2.5543e-05 0 0 0 0)
(0.000361467 0.000710514 0 6.33588e-06 -1.86672e-05 0 0 0 0)
(-0.000337164 -0.000743552 0 -1.37198e-05 1.46504e-05 0 0 0 0)
(0.000306588 0.000769115 0 1.89254e-05 -1.09646e-05 0 0 0 0)
(-0.000261462 -0.00078741 0 -1.27949e-05 8.59044e-06 0 0 0 0)
(0.000255408 0.000803477 0 3.46897e-05 -6.96619e-06 0 0 0 0)
(-0.000122703 -0.000815275 0 -3.009e-05 3.60531e-06 0 0 0 0)
(0.000135048 0.000817898 0 -4.05816e-06 -3.40282e-06 0 0 0 0)
(-0.000138936 -0.000828886 0 9.7194e-07 2.74701e-06 0 0 0 0)
(-3.4639e-11 2.26951e-12 0 1.71033e-11 -1.82012e-12 0 0 0 0)
(-3.37064e-11 5.01096e-12 0 -6.23416e-13 -9.04891e-13 0 0 0 0)
(-3.21965e-11 5.88908e-12 0 -1.0842e-12 7.37098e-14 0 0 0 0)
(-2.93099e-11 4.71612e-12 0 -1.30104e-12 1.24052e-12 0 0 0 0)
(-2.70894e-11 9.27006e-13 0 -1.57209e-12 2.58708e-12 0 0 0 0)
(-2.29594e-11 -5.63222e-12 0 -1.84314e-12 3.94549e-12 0 0 0 0)
(-1.9762e-11 -1.48549e-11 0 -2.05998e-12 5.08148e-12 0 0 0 0)
(-1.46549e-11 -2.59581e-11 0 -2.33103e-12 5.80311e-12 0 0 0 0)
(-1.04361e-11 -3.80674e-11 0 -2.62919e-12 5.83769e-12 0 0 0 0)
(-4.21885e-12 -4.93089e-11 0 -2.87314e-12 5.09523e-12 0 0 0 0)
(1.06581e-12 -5.84483e-11 0 -3.00866e-12 3.6502e-12 0 0 0 0)
(7.72715e-12 -6.39097e-11 0 -2.76472e-12 1.84631e-12 0 0 0 0)
(1.22569e-11 -6.58336e-11 0 -2.30393e-12 3.19288e-14 0 0 0 0)
(1.67866e-11 -6.40374e-11 0 -1.5992e-12 -1.48519e-12 0 0 0 0)
(1.87406e-11 -5.98928e-11 0 -1.0571e-12 -2.84826e-12 0 0 0 0)
(2.11386e-11 -5.26443e-11 0 -1.54499e-12 -5.16564e-12 0 0 0 0)
(2.47802e-11 -3.92302e-11 0 -2.33103e-12 -8.64614e-12 0 0 0 0)
(3.04645e-11 -1.80598e-11 0 -3.79471e-13 -1.02925e-11 0 0 0 0)
(2.63789e-11 1.93994e-12 0 4.68917e-12 -5.63471e-12 0 0 0 0)
(1.1724e-11 4.47906e-12 0 9.51387e-12 1.60475e-12 0 0 0 0)
(6.25762e-07 2.34478e-05 0 2.62443e-06 0.000120987 0 0 0 0)
(-6.27054e-07 -2.86324e-05 0 -1.21377e-07 -2.71963e-05 0 0 0 0)
(3.44415e-08 6.43319e-06 0 1.1621e-07 6.45776e-06 0 0 0 0)
(-3.14614e-08 -1.53021e-06 0 1.63886e-08 -1.4635e-06 0 0 0 0)
(-3.39998e-09 3.45623e-07 0 -9.63594e-09 3.36919e-07 0 0 0 0)
(2.58886e-09 -8.00266e-08 0 2.78861e-09 -8.1006e-08 0 0 0 0)