/*--------------------------------*- C++ -*----------------------------------*\
| =========                 |                                                 |
| \\      /  F ield         | OpenFOAM: The Open Source CFD Toolbox           |
|  \\    /   O peration     | Version:  2506                                  |
|   \\  /    A nd           | Website:  www.openfoam.com                      |
|    \\/     M anipulation  |                                                 |
\*---------------------------------------------------------------------------*/
FoamFile
{
    version     2.0;
    format      ascii;
    arch        "LSB;label=32;scalar=64";
    class       volVectorField;
    location    "3.125";
    object      LambVectorField;
}
// * * * * * * * * * * * * * * * * * * * * * * * * * * * * * * * * * * * * * //

dimensions      [0 1 -2 0 0 0 0];

internalField   nonuniform List<vector> 
400
(
(-8.07049e-12 -2.66821e-05 0)
(-1.98646e-12 2.92167e-05 -0)
(-1.08446e-13 -6.71722e-06 0)
(-5.76494e-15 1.57566e-06 -0)
(-3.0974e-16 -3.67732e-07 0)
(-1.72468e-17 8.51628e-08 -0)
(-8.03822e-19 -1.91237e-08 0)
(-8.25467e-20 6.73168e-09 -0)
(2.36467e-21 1.26909e-09 0)
(-1.07616e-21 2.73504e-09 -0)
(1.77167e-21 2.20359e-09 0)
(1.75333e-21 1.95299e-09 0)
(1.56827e-21 1.53486e-09 0)
(1.09612e-21 1.13986e-09 0)
(6.38694e-22 7.75363e-10 0)
(3.11692e-22 4.7956e-10 0)
(1.26406e-22 2.55204e-10 0)
(2.83622e-23 9.22293e-11 0)
(-3.36175e-25 -5.54364e-12 0)
(-1.28228e-25 2.26001e-11 -0)
(-9.25325e-12 2.92856e-05 -0)
(-2.16245e-12 -3.05792e-05 0)
(-1.18679e-13 7.05947e-06 -0)
(-6.12696e-15 -1.63043e-06 0)
(-3.37604e-16 3.75877e-07 -0)
(-1.65594e-17 -8.72109e-08 0)
(-1.10447e-18 1.97421e-08 -0)
(-2.91714e-20 -4.85459e-09 0)
(-3.75819e-21 9.03111e-10 -0)
(-4.46017e-22 -3.39874e-10 0)
(6.00562e-23 2.94624e-11 0)
(5.39805e-23 1.81733e-11 0)
(2.58855e-22 8.21025e-11 0)
(3.41012e-22 1.14213e-10 0)
(3.37931e-22 1.3314e-10 0)
(2.47297e-22 1.25419e-10 0)
(1.60901e-22 1.0902e-10 0)
(1.37415e-22 1.37824e-10 0)
(1.56955e-23 1.03178e-10 0)
(-1.67063e-25 1.33358e-11 -0)
(-1.20094e-11 -3.4846e-05 0)
(-2.59126e-12 3.40266e-05 -0)
(-1.41037e-13 -7.84802e-06 0)
(-7.31064e-15 1.80874e-06 -0)
(-3.68092e-16 -4.17893e-07 0)
(-2.25005e-17 9.56402e-08 -0)
(-7.13897e-19 -2.27152e-08 0)
(-8.52676e-20 4.69582e-09 -0)
(-7.25671e-22 -1.49788e-09 0)
(9.18336e-23 7.21488e-11 0)
(-6.14821e-22 -1.458e-10 0)
(1.93598e-22 3.72568e-11 0)
(5.9047e-22 1.07302e-10 0)
(9.13811e-22 1.78424e-10 0)
(9.24849e-22 2.13465e-10 0)
(6.90178e-22 2.05433e-10 0)
(4.51947e-22 1.80704e-10 0)
(3.80606e-22 2.29293e-10 0)
(4.7633e-23 1.73182e-10 0)
(-3.67303e-25 2.49481e-11 -0)
(-1.59324e-11 4.07952e-05 -0)
(-3.3078e-12 -3.88112e-05 0)
(-1.80878e-13 8.9223e-06 -0)
(-8.89872e-15 -2.05149e-06 0)
(-4.9676e-16 4.70378e-07 -0)
(-2.12268e-17 -1.09088e-07 0)
(-1.63244e-18 2.41939e-08 -0)
(-1.94297e-20 -6.30648e-09 0)
(-2.99301e-21 8.8799e-10 -0)
(-2.47182e-21 -5.73854e-10 0)
(-2.52068e-22 -3.87497e-11 0)
(1.66539e-22 2.09871e-11 0)
(1.31123e-21 1.62139e-10 0)
(1.85727e-21 2.49984e-10 0)
(1.87384e-21 3.00795e-10 0)
(1.39101e-21 2.89597e-10 0)
(9.09303e-22 2.56125e-10 0)
(7.62218e-22 3.21692e-10 0)
(1.00968e-22 2.43676e-10 0)
(-4.59296e-25 3.89555e-11 -0)
(-2.22553e-11 -4.7888e-05 0)
(-4.70186e-12 4.60374e-05 -0)
(-2.53965e-13 -1.05853e-05 0)
(-1.3132e-14 2.42998e-06 -0)
(-6.4523e-16 -5.59092e-07 0)
(-3.97488e-17 1.27003e-07 -0)
(-1.27881e-18 -3.02141e-08 0)
(-1.22714e-19 6.00115e-09 -0)
(-1.01417e-20 -2.06995e-09 0)
(1.2336e-22 1.97033e-11 0)
(-2.10284e-21 -2.08428e-10 0)
(8.13928e-22 7.35163e-11 0)
(2.24549e-21 2.03965e-10 0)
(3.22865e-21 3.25452e-10 0)
(3.18771e-21 3.86915e-10 0)
(2.363e-21 3.73813e-10 0)
(1.54416e-21 3.31864e-10 0)
(1.27035e-21 4.13184e-10 0)
(1.84545e-22 3.15111e-10 0)
(-1.31545e-25 5.67612e-11 -0)
(-3.48494e-11 6.25188e-05 -0)
(-6.79206e-12 -5.64817e-05 0)
(-3.70485e-13 1.30028e-05 -0)
(-1.79701e-14 -2.99212e-06 0)
(-9.76093e-16 6.86214e-07 -0)
(-4.34589e-17 -1.59071e-07 0)
(-2.64455e-18 3.52366e-08 -0)
(-1.1343e-19 -9.16023e-09 0)
(4.90732e-21 1.29109e-09 0)
(-9.79525e-21 -8.18123e-10 0)
(-5.33591e-22 -3.82111e-11 0)
(8.36156e-22 5.63986e-11 0)
(3.78573e-21 2.66485e-10 0)
(5.00963e-21 3.98092e-10 0)
(4.90089e-21 4.7404e-10 0)
(3.61153e-21 4.58347e-10 0)
(2.3562e-21 4.09143e-10 0)
(1.91061e-21 5.02796e-10 0)
(2.99637e-22 3.85366e-10 0)
(1.08869e-24 7.7319e-11 0)
(-5.13838e-11 -7.43485e-05 0)
(-1.04972e-11 6.93904e-05 -0)
(-5.68799e-13 -1.602e-05 0)
(-2.90255e-14 3.69205e-06 -0)
(-1.45849e-15 -8.52169e-07 0)
(-8.11756e-17 1.9447e-07 -0)
(-3.65026e-18 -4.61408e-08 0)
(-1.19879e-19 9.39476e-09 -0)
(-5.22159e-20 -3.05477e-09 0)
(2.0818e-21 1.27621e-10 0)
(-5.04905e-21 -2.64284e-10 0)
(2.58769e-21 1.36935e-10 0)
(5.45e-21 3.09078e-10 0)
(7.27333e-21 4.74185e-10 0)
(6.94506e-21 5.56965e-10 0)
(5.10694e-21 5.405e-10 0)
(3.3284e-21 4.84588e-10 0)
(2.64444e-21 5.87979e-10 0)
(4.48873e-22 4.53247e-10 0)
(3.73932e-24 1.00689e-10 0)
(-7.71494e-11 9.02582e-05 -0)
(-1.60609e-11 -8.55564e-05 0)
(-8.76347e-13 1.97933e-05 -0)
(-4.41331e-14 -4.57449e-06 0)
(-2.32605e-15 1.05376e-06 -0)
(-1.20225e-16 -2.44623e-07 0)
(-5.15601e-18 5.47694e-08 -0)
(-5.6188e-19 -1.38864e-08 0)
(3.66843e-20 2.22757e-09 0)
(-2.75664e-20 -1.11307e-09 0)
(5.84435e-22 2.42756e-11 0)
(2.48733e-21 1.06729e-10 0)
(7.98438e-21 3.78434e-10 0)
(9.77739e-21 5.40968e-10 0)
(9.25352e-21 6.36107e-10 0)
(6.76444e-21 6.17417e-10 0)
(4.40386e-21 5.5648e-10 0)
(3.43746e-21 6.65962e-10 0)
(6.24852e-22 5.1572e-10 0)
(8.13265e-24 1.2532e-10 0)
(-1.16114e-10 -0.000110015 0)
(-2.47112e-11 0.000105651 -0)
(-1.35269e-12 -2.45861e-05 0)
(-6.95131e-14 5.71294e-06 -0)
(-3.66061e-15 -1.32866e-06 0)
(-1.84425e-16 3.06411e-07 -0)
(-1.12525e-17 -7.26277e-08 0)
(-1.64889e-20 1.54644e-08 -0)
(-1.66875e-19 -4.57027e-09 0)
(1.3113e-20 4.44311e-10 0)
(-9.48115e-21 -3.16265e-10 0)
(6.21624e-21 2.26203e-10 0)
(1.00715e-20 4.12252e-10 0)
(1.25639e-20 6.09248e-10 0)
(1.15956e-20 7.04723e-10 0)
(8.4598e-21 6.86196e-10 0)
(5.50094e-21 6.20808e-10 0)
(4.2135e-21 7.33067e-10 0)
(8.14556e-22 5.70058e-10 0)
(1.42541e-23 1.49778e-10 0)
(-1.63203e-10 0.000126913 -0)
(-3.66794e-11 -0.000127471 0)
(-2.02699e-12 2.98062e-05 -0)
(-1.05243e-13 -6.95948e-06 0)
(-5.5251e-15 1.62063e-06 -0)
(-3.13612e-16 -3.79263e-07 0)
(-1.07593e-17 8.65786e-08 -0)
(-1.71888e-18 -2.14756e-08 0)
(1.25748e-19 3.98661e-09 0)
(-5.95356e-20 -1.52201e-09 0)
(5.75866e-21 1.67432e-10 0)
(4.9739e-21 1.58365e-10 0)
(1.32196e-20 4.83834e-10 0)
(1.50012e-20 6.57503e-10 0)
(1.37841e-20 7.62878e-10 0)
(9.99391e-21 7.41608e-10 0)
(6.49184e-21 6.73443e-10 0)
(4.8927e-21 7.85503e-10 0)
(1.00251e-21 6.14125e-10 0)
(2.12887e-23 1.72696e-10 0)
(-2.07188e-10 -0.000136231 0)
(-5.14952e-11 0.000148228 -0)
(-2.88495e-12 -3.49568e-05 0)
(-1.50996e-13 8.22552e-06 -0)
(-8.56503e-15 -1.93565e-06 0)
(-4.05648e-16 4.52805e-07 -0)
(-2.9944e-17 -1.07857e-07 0)
(6.64813e-20 2.39351e-08 0)
(-3.77653e-19 -6.56713e-09 0)
(3.92656e-20 9.68821e-10 0)
(-1.46234e-20 -3.72308e-10 0)
(1.12252e-20 3.27463e-10 0)
(1.45696e-20 4.9207e-10 0)
(1.72505e-20 7.04975e-10 0)
(1.54459e-20 8.01723e-10 0)
(1.11827e-20 7.81217e-10 0)
(7.25186e-21 7.10753e-10 0)
(5.39147e-21 8.19818e-10 0)
(1.1611e-21 6.44684e-10 0)
(2.80125e-23 1.91708e-10 0)
(-2.22174e-10 0.000132862 -0)
(-6.33123e-11 -0.000159892 0)
(-3.55025e-12 3.81443e-05 -0)
(-2.00276e-13 -9.09694e-06 0)
(-1.08208e-14 2.16544e-06 -0)
(-6.51925e-16 -5.16855e-07 0)
(-2.46821e-17 1.21144e-07 -0)
(-3.5724e-18 -2.99649e-08 0)
(2.33115e-19 6.16398e-09 0)
(-9.7378e-20 -1.96949e-09 0)
(1.46693e-20 3.59116e-10 0)
(7.06989e-21 1.9376e-10 0)
(1.72075e-20 5.5553e-10 0)
(1.82693e-20 7.17504e-10 0)
(1.63951e-20 8.22162e-10 0)
(1.17815e-20 7.97548e-10 0)
(7.62884e-21 7.26625e-10 0)
(5.61237e-21 8.31337e-10 0)
(1.27754e-21 6.60534e-10 0)
(3.3013e-23 2.06623e-10 0)
(-2.28443e-10 -0.000128607 0)
(-7.12386e-11 0.000166891 -0)
(-4.0188e-12 -3.98574e-05 0)
(-2.28595e-13 9.51371e-06 -0)
(-1.31259e-14 -2.27272e-06 0)
(-6.91047e-16 5.40844e-07 -0)
(-5.00333e-17 -1.30548e-07 0)
(-4.83638e-19 3.00001e-08 -0)
(-5.67166e-19 -8.00401e-09 0)
(6.42269e-20 1.4589e-09 0)
(-1.77942e-20 -4.07541e-10 0)
(1.49684e-20 4.0528e-10 0)
(1.64104e-20 5.21122e-10 0)
(1.87124e-20 7.2936e-10 0)
(1.63115e-20 8.14769e-10 0)
(1.17055e-20 7.91797e-10 0)
(7.55694e-21 7.20793e-10 0)
(5.52985e-21 8.19318e-10 0)
(1.31614e-21 6.57742e-10 0)
(3.52628e-23 2.14254e-10 0)
(-2.36396e-10 0.000127172 -0)
(-7.77855e-11 -0.000172869 0)
(-4.39065e-12 4.12787e-05 -0)
(-2.53308e-13 -9.85326e-06 0)
(-1.42436e-14 2.35025e-06 -0)
(-8.54166e-16 -5.62581e-07 0)
(-3.86047e-17 1.33087e-07 -0)
(-4.63098e-18 -3.28644e-08 0)
(2.40067e-19 7.12152e-09 0)
(-1.10557e-19 -2.08934e-09 0)
(1.99677e-20 4.81328e-10 0)
(7.64766e-21 2.06794e-10 0)
(1.72314e-20 5.59453e-10 0)
(1.73558e-20 6.92822e-10 0)
(1.52446e-20 7.8423e-10 0)
(1.0836e-20 7.56535e-10 0)
(6.98062e-21 6.8837e-10 0)
(5.08326e-21 7.79819e-10 0)
(1.27708e-21 6.35869e-10 0)
(3.44602e-23 2.1525e-10 0)
(-2.43323e-10 -0.000126547 0)
(-8.31184e-11 0.00017758 -0)
(-4.6957e-12 -4.24062e-05 0)
(-2.72951e-13 1.01234e-05 -0)
(-1.5744e-14 -2.41931e-06 0)
(-8.64076e-16 5.7686e-07 -0)
(-6.1536e-17 -1.39023e-07 0)
(-1.04797e-18 3.23403e-08 -0)
(-6.3257e-19 -8.35939e-09 0)
(7.0713e-20 1.68971e-09 0)
(-1.63949e-20 -3.85891e-10 0)
(1.44109e-20 4.14565e-10 0)
(1.40281e-20 4.78985e-10 0)
(1.54445e-20 6.56893e-10 0)
(1.31414e-20 7.22597e-10 0)
(9.32123e-21 6.98447e-10 0)
(5.97889e-21 6.34012e-10 0)
(4.35528e-21 7.16054e-10 0)
(1.13262e-21 5.90225e-10 0)
(3.08166e-23 2.05812e-10 0)
(-2.68442e-10 0.000136367 -0)
(-8.75489e-11 -0.000183577 0)
(-4.94993e-12 4.38886e-05 -0)
(-2.87058e-13 -1.04939e-05 0)
(-1.61659e-14 2.50928e-06 -0)
(-9.80529e-16 -6.01687e-07 0)
(-4.41934e-17 1.43188e-07 -0)
(-5.23261e-18 -3.50558e-08 0)
(2.46921e-19 7.90303e-09 0)
(-1.07124e-19 -2.13032e-09 0)
(2.07261e-20 5.56945e-10 0)
(5.55838e-21 1.71289e-10 0)
(1.27188e-20 4.82264e-10 0)
(1.20759e-20 5.71678e-10 0)
(1.03893e-20 6.4098e-10 0)
(7.28306e-21 6.14067e-10 0)
(4.66461e-21 5.57528e-10 0)
(3.38021e-21 6.28159e-10 0)
(9.11323e-22 5.2254e-10 0)
(2.44821e-23 1.86019e-10 0)
(-2.3476e-10 -0.000116872 0)
(-8.953e-11 0.000181575 -0)
(-5.06571e-12 -4.32661e-05 0)
(-2.95371e-13 1.03058e-05 -0)
(-1.73343e-14 -2.45649e-06 0)
(-9.37819e-16 5.8468e-07 -0)
(-6.95742e-17 -1.40066e-07 0)
(-1.29706e-18 3.28291e-08 -0)
(-6.23226e-19 -8.19474e-09 0)
(6.27924e-20 1.79891e-09 0)
(-1.27374e-20 -3.59991e-10 0)
(9.87438e-21 3.62079e-10 0)
(8.18657e-21 3.63881e-10 0)
(8.73033e-21 4.93721e-10 0)
(7.21398e-21 5.33528e-10 0)
(5.05258e-21 5.13024e-10 0)
(3.23226e-21 4.65445e-10 0)
(2.34903e-21 5.22666e-10 0)
(6.42776e-22 4.35803e-10 0)
(1.51987e-23 1.54969e-10 0)
(-2.52169e-10 0.000123722 -0)
(-9.27727e-11 -0.000185521 0)
(-5.22334e-12 4.42134e-05 -0)
(-3.10858e-13 -1.05336e-05 0)
(-1.71759e-14 2.50947e-06 -0)
(-1.11788e-15 -5.98725e-07 0)
(-4.85558e-17 1.4223e-07 -0)
(-5.73851e-18 -3.43182e-08 0)
(1.44181e-19 7.9189e-09 0)
(-8.21221e-20 -1.99712e-09 0)
(1.35172e-20 5.32373e-10 0)
(1.79829e-21 8.13034e-11 0)
(5.42995e-21 3.16497e-10 0)
(4.81981e-21 3.5546e-10 0)
(4.07281e-21 3.96981e-10 0)
(2.80612e-21 3.75275e-10 0)
(1.78801e-21 3.38886e-10 0)
(1.32363e-21 3.8823e-10 0)
(3.88644e-22 3.37427e-10 0)
(5.38696e-24 1.19314e-10 0)
(-3.26426e-10 -0.000159641 0)
(-9.55725e-11 0.00019548 -0)
(-5.45028e-12 -4.68865e-05 0)
(-3.04215e-13 1.12486e-05 -0)
(-1.82044e-14 -2.70041e-06 0)
(-8.91852e-16 6.48654e-07 -0)
(-6.7743e-17 -1.56138e-07 0)
(-1.24577e-18 3.74241e-08 -0)
(-4.59409e-19 -9.12555e-09 0)
(4.15125e-20 2.16273e-09 0)
(-8.926e-21 -4.80553e-10 0)
(3.23889e-21 2.36493e-10 0)
(1.42866e-21 1.30736e-10 0)
(1.75078e-21 2.07119e-10 0)
(1.36054e-21 2.13222e-10 0)
(9.00433e-22 1.94843e-10 0)
(5.43571e-22 1.66015e-10 0)
(4.76171e-22 2.15638e-10 0)
(1.83341e-22 2.25235e-10 0)
(-4.15166e-25 8.5604e-11 -0)
(-3.23532e-10 0.000156129 -0)
(-1.02067e-10 -0.000196039 0)
(-6.08926e-12 4.93031e-05 -0)
(-3.67318e-13 -1.1711e-05 0)
(-2.31696e-14 3.05356e-06 -0)
(-1.36638e-15 -6.97059e-07 0)
(-9.99141e-17 2.15916e-07 -0)
(-4.0025e-18 -2.8487e-08 0)
(-5.50387e-19 2.68336e-08 -0)
(1.21227e-19 7.34224e-09 0)
(3.39701e-20 8.76256e-09 0)
(2.917e-20 5.54493e-09 0)
(1.46281e-20 4.21602e-09 0)
(8.09244e-21 2.85331e-09 0)
(3.92395e-21 1.88591e-09 0)
(1.74021e-21 1.15107e-09 0)
(6.97893e-22 6.39951e-10 0)
(2.20191e-22 2.82011e-10 0)
(2.22556e-23 6.87089e-11 0)
(-4.56698e-25 4.07852e-11 -0)
)
;

boundaryField
{
    movingWall
    {
        type            calculated;
        value           nonuniform List<vector> 
20
(
(0 0.000294093 -0)
(0 -0.000229007 -0)
(0 6.25338e-05 -0)
(0 -1.48415e-05 -0)
(0 4.26485e-06 -0)
(0 -9.7356e-07 -0)
(0 3.45626e-07 -0)
(0 -3.78179e-08 -0)
(0 5.10958e-08 -0)
(0 1.57524e-08 -0)
(0 1.7777e-08 -0)
(0 1.12552e-08 -0)
(0 8.53502e-09 -0)
(0 5.7449e-09 -0)
(0 3.78702e-09 -0)
(0 2.30942e-09 -0)
(0 1.28511e-09 -0)
(0 5.22262e-10 -0)
(0 5.26865e-11 -0)
(0 4.29953e-11 -0)
)
;
    }
    fixedWalls
    {
        type            calculated;
        value           nonuniform List<vector> 
60
(
(0 -0.000124222 -0)
(0 0.000131147 -0)
(0 -0.000145854 -0)
(0 0.000166482 -0)
(0 -0.000197522 -0)
(0 0.000241771 -0)
(0 -0.000296813 -0)
(0 0.00036546 -0)
(0 -0.000450036 -0)
(0 0.000541472 -0)
(0 -0.000627228 -0)
(0 0.000674122 -0)
(0 -0.000704178 -0)
(0 0.000729832 -0)
(0 -0.00075019 -0)
(0 0.000774615 -0)
(0 -0.000768787 -0)
(0 0.000785185 -0)
(0 -0.000821957 -0)
(0 0.000829858 -0)
(0 1.48338e-11 -0)
(0 -5.63437e-12 -0)
(0 -6.97328e-12 -0)
(0 -6.01716e-12 -0)
(0 -2.4991e-12 -0)
(0 3.78907e-12 -0)
(0 1.2795e-11 -0)
(0 2.36271e-11 -0)
(0 3.54382e-11 -0)
(0 4.64358e-11 -0)
(0 5.54397e-11 -0)
(0 6.1145e-11 -0)
(0 6.35297e-11 -0)
(0 6.24382e-11 -0)
(0 5.88357e-11 -0)
(0 5.10994e-11 -0)
(0 3.68992e-11 -0)
(0 1.76803e-11 -0)
(0 2.74924e-12 -0)
(0 5.03481e-12 -0)
(0 -2.08234e-05 -0)
(0 2.85111e-05 -0)
(0 -6.31698e-06 -0)
(0 1.5466e-06 -0)
(0 -3.55259e-07 -0)
(0 8.28152e-08 -0)
(0 -1.83057e-08 -0)
(0 8.63037e-09 -0)
(0 3.49514e-09 -0)
(0 5.12387e-09 -0)
(0 4.37927e-09 -0)
(0 3.81746e-09 -0)
(0 3.00423e-09 -0)
(0 2.21578e-09 -0)
(0 1.4928e-09 -0)
(0 9.11428e-10 -0)
(0 4.77711e-10 -0)
(0 1.39879e-10 -0)
(0 -5.00379e-11 -0)
(0 4.01357e-11 -0)
)
;
    }
    frontAndBack
    {
        type            empty;
    }
}


// ************************************************************************* //
