/*--------------------------------*- C++ -*----------------------------------*\
| =========                 |                                                 |
| \\      /  F ield         | OpenFOAM: The Open Source CFD Toolbox           |
|  \\    /   O peration     | Version:  2506                                  |
|   \\  /    A nd           | Website:  www.openfoam.com                      |
|    \\/     M anipulation  |                                                 |
\*---------------------------------------------------------------------------*/
FoamFile
{
    version     2.0;
    format      ascii;
    arch        "LSB;label=32;scalar=64";
    class       volScalarField;
    location    "3.125";
    object      Lambda2Field;
}
// * * * * * * * * * * * * * * * * * * * * * * * * * * * * * * * * * * * * * //

dimensions      [0 0 -2 0 0 0 0];

internalField   nonuniform List<scalar> 
400
(
-7.40146e-11
-1.63347e-11
-1.82277e-12
-6.85572e-14
-7.61005e-15
-4.04336e-16
0
-9.92363e-18
2.92523e-18
-2.70054e-19
3.82001e-19
1.83222e-19
1.78602e-19
1.27782e-19
8.52616e-20
5.01213e-20
3.06678e-20
1.48989e-20
1.39322e-21
0
-9.89698e-11
-7.05929e-12
-2.10609e-12
0
-5.44424e-15
0
-1.6636e-17
2.0242e-18
-1.68697e-19
1.80039e-19
1.48854e-19
1.88343e-19
1.97152e-19
1.64695e-19
1.1513e-19
7.01716e-20
3.91034e-20
1.53083e-20
3.83403e-23
9.52124e-24
-1.59092e-10
-1.91638e-11
-4.15768e-12
-2.90462e-14
-1.31018e-14
-6.79842e-16
-7.62047e-18
-4.86974e-18
8.68425e-19
2.45534e-19
2.94888e-19
2.57598e-19
2.37106e-19
1.85649e-19
1.25117e-19
7.13996e-20
4.1205e-20
1.73438e-20
-2.70074e-22
2.82297e-23
-1.69135e-10
0
-3.38097e-12
0
-7.37192e-15
0
0
7.17561e-19
3.18879e-19
4.86137e-19
4.62384e-19
3.46141e-19
2.95029e-19
2.11166e-19
1.36786e-19
8.1373e-20
4.32086e-20
1.47829e-20
-3.58365e-22
5.39143e-23
-1.43133e-10
0
-3.47583e-12
0
-2.22958e-15
0
0
0
1.74014e-18
8.67128e-19
5.93082e-19
4.90026e-19
3.52963e-19
2.49331e-19
1.54663e-19
8.46183e-20
4.64488e-20
1.78415e-20
-9.66071e-22
9.83983e-23
-3.0946e-10
0
-4.71087e-12
0
0
0
0
0
1.43561e-18
5.69765e-19
8.833e-19
5.6071e-19
4.29274e-19
2.81002e-19
1.7165e-19
9.76209e-20
4.85992e-20
1.4945e-20
-9.27596e-22
1.51597e-22
-2.15229e-10
0
0
0
0
0
0
0
1.1758e-18
1.70283e-18
6.3418e-19
7.2048e-19
4.68144e-19
3.23154e-19
1.92272e-19
1.02511e-19
5.16432e-20
1.84461e-20
-1.33174e-21
2.12367e-22
-2.43901e-10
0
0
0
0
0
0
0
2.73866e-18
0
1.2002e-18
6.78541e-19
5.37733e-19
3.4467e-19
2.08888e-19
1.13401e-19
5.30004e-20
1.57873e-20
-1.15745e-21
3.31234e-22
-3.63158e-11
0
0
0
0
0
0
0
0
2.196e-18
5.09892e-19
8.3884e-19
5.4184e-19
3.75076e-19
2.24561e-19
1.17943e-19
5.43169e-20
1.8921e-20
-9.41055e-22
4.08961e-22
0
0
0
0
0
0
0
0
4.83935e-18
0
1.32991e-18
6.82486e-19
5.9072e-19
3.85152e-19
2.37324e-19
1.2479e-19
5.51788e-20
1.73259e-20
-7.99536e-22
5.30397e-22
0
0
0
0
0
0
0
0
0
2.62333e-18
6.26041e-19
8.76297e-19
5.78361e-19
4.1068e-19
2.50085e-19
1.30142e-19
5.6168e-20
1.98535e-20
-1.53077e-22
5.98444e-22
0
0
0
0
0
0
0
0
7.46066e-18
0
1.40544e-18
7.84707e-19
6.38548e-19
4.34808e-19
2.69388e-19
1.40713e-19
6.134e-20
2.15915e-20
-5.292e-22
5.82307e-22
1.20344e-09
1.38795e-10
1.89054e-11
5.74478e-14
1.65425e-14
0
0
4.34212e-17
0
3.54981e-18
7.95771e-19
9.9068e-19
6.84446e-19
4.79646e-19
2.98788e-19
1.55959e-19
6.73161e-20
2.49501e-20
4.82471e-22
4.98936e-22
2.14764e-09
4.34476e-10
4.96542e-11
1.86458e-12
1.7161e-13
8.82858e-15
6.75961e-16
0
1.49987e-17
0
1.78551e-18
9.67737e-19
7.77662e-19
5.49681e-19
3.42567e-19
1.79188e-19
8.06082e-20
3.16277e-20
5.0071e-23
3.48991e-22
2.87336e-09
6.64279e-10
7.55647e-11
3.14274e-12
3.25171e-13
1.80999e-14
1.10637e-15
1.6053e-16
0
5.4747e-18
9.58259e-19
1.22363e-18
9.22797e-19
6.37998e-19
4.03223e-19
2.11653e-19
9.61682e-20
3.86109e-20
2.49995e-21
2.18974e-22
1.98231e-09
3.76789e-10
4.83426e-11
1.52066e-12
1.65683e-13
7.28571e-15
7.47014e-16
0
1.97472e-17
0
2.19463e-18
1.55056e-18
1.09576e-18
7.9186e-19
4.73895e-19
2.46363e-19
1.13986e-19
4.77995e-20
3.23803e-21
2.91407e-22
5.30616e-09
1.44034e-09
1.4775e-10
7.71385e-12
6.75855e-13
4.73355e-14
2.57366e-15
3.91849e-16
0
1.00641e-17
2.25558e-18
1.74951e-18
1.41999e-18
8.98988e-19
5.49657e-19
2.82421e-19
1.315e-19
5.21611e-20
5.18763e-21
3.78151e-22
4.6412e-09
1.24514e-09
1.33745e-10
6.65809e-12
7.05734e-13
3.40658e-14
4.75802e-15
5.94142e-17
6.57549e-17
1.54982e-18
4.18219e-18
2.4541e-18
1.71966e-18
1.08239e-18
6.38306e-19
3.27466e-19
1.54194e-19
6.22467e-20
4.03083e-21
6.9224e-23
0
0
0
0
0
0
0
4.27333e-17
0
4.87487e-18
5.19507e-18
2.88174e-18
2.07957e-18
1.23737e-18
7.26864e-19
3.67799e-19
1.82594e-19
7.65707e-20
5.984e-21
-3.47674e-22
0
0
0
0
0
1.44277e-14
-1.70586e-15
8.10869e-16
-1.70076e-16
3.66026e-17
-3.55188e-18
3.36929e-18
1.00254e-18
8.97436e-19
4.83751e-19
2.6876e-19
1.49074e-19
7.35978e-20
1.25916e-20
-2.83923e-22
)
;

boundaryField
{
    movingWall
    {
        type            calculated;
        value           nonuniform List<scalar> 
20
(
0
0
0
0
0
0
0
1.25919e-15
-4.12494e-16
7.47374e-17
-1.56917e-17
3.91084e-18
-4.45944e-20
5.08351e-19
2.0867e-19
1.46839e-19
1.01683e-19
6.17042e-20
1.38605e-20
-3.46562e-22
)
;
    }
    fixedWalls
    {
        type            calculated;
        value           nonuniform List<scalar> 
60
(
-3.84417e-10
-3.59533e-10
-6.32986e-10
0
0
0
0
0
0
0
0
0
4.85019e-09
1.0416e-08
1.46761e-08
1.01486e-08
2.79209e-08
2.45446e-08
0
0
4.2129e-23
0
0
0
5.23566e-24
2.59479e-23
5.64224e-23
9.41854e-23
1.34165e-22
1.5947e-22
1.76987e-22
1.80101e-22
1.51677e-22
1.04614e-22
7.14251e-23
1.08019e-22
1.66203e-22
1.1279e-22
4.08466e-23
4.51884e-23
6.19286e-11
3.86852e-12
7.48785e-13
0
0
0
1.38979e-17
0
5.56731e-18
-5.0677e-19
6.68981e-19
2.12566e-19
1.86264e-19
1.04468e-19
6.29014e-20
3.59379e-20
2.30484e-20
1.09401e-20
2.78674e-21
-5.39271e-23
)
;
    }
    frontAndBack
    {
        type            empty;
    }
}


// ************************************************************************* //
