/*--------------------------------*- C++ -*----------------------------------*\
| =========                 |                                                 |
| \\      /  F ield         | OpenFOAM: The Open Source CFD Toolbox           |
|  \\    /   O peration     | Version:  2506                                  |
|   \\  /    A nd           | Website:  www.openfoam.com                      |
|    \\/     M anipulation  |                                                 |
\*---------------------------------------------------------------------------*/
FoamFile
{
    version     2.0;
    format      ascii;
    arch        "LSB;label=32;scalar=64";
    class       volScalarField;
    location    "3.125";
    object      QField;
}
// * * * * * * * * * * * * * * * * * * * * * * * * * * * * * * * * * * * * * //

dimensions      [0 0 -2 0 0 0 0];

internalField   nonuniform List<scalar> 
400
(
7.49916e-11
1.65569e-11
1.82492e-12
6.92351e-14
7.66028e-15
4.07767e-16
1.23827e-18
1.02855e-17
-2.93824e-18
2.74509e-19
-3.84971e-19
-1.87848e-19
-1.81336e-19
-1.30682e-19
-8.7522e-20
-5.2063e-20
-3.09775e-20
-1.49982e-20
-1.48323e-21
7.27499e-23
1.02941e-10
1.6936e-11
2.32997e-12
5.10192e-14
6.66458e-15
1.88019e-16
2.79691e-17
-2.59858e-18
2.29324e-19
-1.86968e-19
-1.55122e-19
-1.93699e-19
-1.99033e-19
-1.67233e-19
-1.17491e-19
-7.07754e-20
-3.94743e-20
-1.64011e-20
-1.23138e-22
-1.60115e-23
1.79492e-10
3.71154e-11
4.36392e-12
1.48617e-13
1.36565e-14
9.01739e-16
1.74711e-17
4.9353e-18
-8.60579e-19
-2.50578e-19
-2.95563e-19
-2.62664e-19
-2.39898e-19
-1.87955e-19
-1.2739e-19
-7.37108e-20
-4.15873e-20
-1.77933e-20
3.94093e-22
-2.7485e-23
1.94306e-10
3.7642e-11
5.63672e-12
1.27868e-13
1.97892e-14
5.78504e-16
8.35355e-17
-1.35532e-18
-7.1681e-19
-5.47491e-19
-4.92904e-19
-3.59546e-19
-2.96289e-19
-2.14738e-19
-1.39647e-19
-8.16437e-20
-4.38134e-20
-1.6078e-20
5.76356e-22
-4.80715e-23
2.01299e-10
3.58845e-11
6.92516e-12
1.41418e-13
1.98601e-14
1.23964e-15
1.74421e-17
4.7656e-18
-1.34167e-18
-1.0217e-18
-6.38122e-19
-4.9657e-19
-3.5854e-19
-2.50802e-19
-1.56874e-19
-8.68657e-20
-4.68951e-20
-1.85089e-20
1.16386e-21
-7.66289e-23
3.78738e-10
8.34022e-11
1.3828e-11
3.40337e-13
5.04659e-14
2.18548e-15
1.44792e-16
1.35721e-17
-3.68339e-18
-8.11464e-19
-9.83159e-19
-5.8693e-19
-4.31306e-19
-2.85058e-19
-1.74455e-19
-9.83381e-20
-4.9759e-20
-1.63764e-20
1.26774e-21
-1.55318e-22
2.54444e-10
3.72923e-11
1.52055e-11
1.02985e-13
4.7783e-14
1.38841e-15
1.58709e-16
-1.35243e-17
2.76046e-18
-2.58794e-18
-8.04623e-19
-7.67436e-19
-4.79765e-19
-3.24438e-19
-1.94121e-19
-1.04056e-19
-5.23078e-20
-1.92518e-20
1.59462e-21
-2.07391e-22
2.55485e-10
3.20611e-11
2.138e-11
1.14778e-13
7.03712e-14
3.22324e-15
2.9769e-17
4.30677e-17
-1.04774e-17
-3.45979e-19
-1.48721e-18
-7.3364e-19
-5.49747e-19
-3.49269e-19
-2.10755e-19
-1.14991e-19
-5.45408e-20
-1.70718e-20
1.57582e-21
-3.40971e-22
2.42454e-10
2.85433e-11
3.03578e-11
9.81551e-14
1.09177e-13
2.05293e-15
5.49998e-16
-3.97348e-17
1.11273e-17
-4.08445e-18
-7.61713e-19
-9.32714e-19
-5.58084e-19
-3.78957e-19
-2.25954e-19
-1.18485e-19
-5.50663e-20
-1.9601e-20
1.22111e-21
-4.17479e-22
-1.20982e-11
-5.54148e-11
3.55409e-11
-2.17067e-13
1.09893e-13
5.90958e-15
-2.93977e-16
9.9964e-17
-2.09184e-17
9.34021e-19
-1.83284e-18
-7.56951e-19
-6.11116e-19
-3.90457e-19
-2.38066e-19
-1.26299e-19
-5.649e-20
-1.81317e-20
1.18786e-21
-5.53877e-22
-4.44262e-10
-2.09653e-10
3.00864e-11
-1.45827e-12
1.40952e-13
-4.95721e-15
7.22935e-16
-8.64845e-17
1.61708e-17
-4.9119e-18
-5.8958e-19
-9.72861e-19
-5.94372e-19
-4.14195e-19
-2.51127e-19
-1.30191e-19
-5.65965e-20
-2.0168e-20
3.66504e-22
-5.98797e-22
-1.19243e-09
-3.44001e-10
-1.768e-12
-1.66603e-12
3.79428e-15
-2.55104e-15
-6.0789e-16
7.16402e-17
-2.24171e-17
1.31648e-18
-1.76396e-18
-7.92616e-19
-6.49635e-19
-4.37027e-19
-2.69475e-19
-1.41113e-19
-6.1656e-20
-2.16632e-20
7.41488e-22
-5.94312e-22
-2.20159e-09
-5.53956e-10
-3.92325e-11
-2.68204e-12
-1.59251e-13
-1.35307e-14
-6.91343e-16
-1.26836e-16
6.57765e-18
-4.59979e-18
-7.32849e-19
-1.0035e-18
-6.85772e-19
-4.80066e-19
-2.99157e-19
-1.56106e-19
-6.74737e-20
-2.50363e-20
-4.87534e-22
-4.99003e-22
-2.91714e-09
-7.33586e-10
-6.41267e-11
-3.83444e-12
-2.65942e-13
-2.00379e-14
-1.44452e-15
-4.73322e-17
-2.08093e-17
3.25028e-19
-1.67672e-18
-1.02389e-18
-7.88437e-19
-5.54901e-19
-3.42855e-19
-1.80447e-19
-8.17283e-20
-3.21813e-20
-1.25082e-22
-3.38774e-22
-3.41978e-09
-8.44805e-10
-8.44057e-11
-4.16936e-12
-3.72813e-13
-2.35051e-14
-1.34294e-15
-1.91284e-16
3.90499e-18
-4.66797e-18
-1.36329e-18
-1.27171e-18
-9.5336e-19
-6.47341e-19
-4.04704e-19
-2.1368e-19
-9.73274e-20
-3.89417e-20
-2.62078e-21
-2.17137e-22
-2.35415e-09
-5.19329e-10
-5.57382e-11
-2.41413e-12
-2.22626e-13
-1.15391e-14
-1.31329e-15
1.4773e-17
-2.01195e-17
-1.19162e-18
-2.12831e-18
-1.68198e-18
-1.14353e-18
-7.96486e-19
-4.77877e-19
-2.50934e-19
-1.17087e-19
-4.86659e-20
-3.54952e-21
-2.83203e-22
-5.60596e-09
-1.56927e-09
-1.54189e-10
-8.83088e-12
-7.20742e-13
-5.71778e-14
-2.94451e-15
-4.51086e-16
-9.80682e-18
-7.3571e-18
-3.21762e-18
-1.96394e-18
-1.47353e-18
-9.16594e-19
-5.5408e-19
-2.84813e-19
-1.32238e-19
-5.2458e-20
-5.44612e-21
-3.95966e-22
-4.71751e-09
-1.23332e-09
-1.33286e-10
-6.22728e-12
-6.9003e-13
-2.94475e-14
-4.41659e-15
-5.08505e-17
-5.17914e-17
-3.26736e-18
-4.71392e-18
-2.58351e-18
-1.75937e-18
-1.09433e-18
-6.40541e-19
-3.30995e-19
-1.58202e-19
-6.26785e-20
-4.51383e-21
-9.56366e-23
5.41561e-10
4.43891e-10
2.87376e-11
2.74614e-12
2.97002e-13
9.3296e-15
2.14027e-15
-4.26682e-18
-1.41172e-17
-6.38586e-18
-6.01531e-18
-3.05746e-18
-2.1056e-18
-1.24984e-18
-7.30445e-19
-3.79626e-19
-1.87893e-19
-7.78331e-20
-6.36026e-21
3.63845e-22
7.88313e-11
1.28183e-10
1.27267e-11
5.4473e-14
2.69237e-13
-2.79858e-14
5.98388e-15
-1.03085e-15
1.87765e-16
-4.35317e-17
4.67654e-18
-3.73743e-18
-1.0553e-18
-9.31989e-19
-4.86057e-19
-2.70371e-19
-1.5113e-19
-7.68027e-20
-1.31711e-20
2.91596e-22
)
;

boundaryField
{
    movingWall
    {
        type            calculated;
        value           nonuniform List<scalar> 
20
(
-1.60007e-10
1.2676e-10
2.84228e-10
-8.50458e-13
1.62663e-12
-4.15184e-14
1.74037e-14
-2.03898e-15
4.55633e-16
-8.07622e-17
1.60292e-17
-3.941e-18
6.45931e-20
-5.36782e-19
-2.22496e-19
-1.50436e-19
-1.03852e-19
-6.25385e-20
-1.61506e-20
3.50113e-22
)
;
    }
    fixedWalls
    {
        type            calculated;
        value           nonuniform List<scalar> 
60
(
3.87762e-10
5.36062e-10
9.40866e-10
1.03229e-09
1.11479e-09
2.06284e-09
1.52848e-09
1.65894e-09
1.75271e-09
5.79994e-10
-1.66331e-09
-5.75564e-09
-1.12493e-08
-1.5141e-08
-1.79174e-08
-1.23209e-08
-2.96516e-08
-2.4974e-08
2.85962e-09
4.23969e-10
2.42308e-23
3.36245e-23
4.01176e-24
-3.02236e-23
-6.86253e-23
-1.00967e-22
-1.31021e-22
-1.45554e-22
-1.61009e-22
-1.63167e-22
-1.71961e-22
-1.62425e-22
-1.51285e-22
-1.2734e-22
-1.16691e-22
-1.9053e-22
-3.057e-22
-3.20411e-22
-1.57734e-22
-2.37992e-23
1.41724e-11
1.35782e-11
-5.25184e-13
7.11216e-14
2.18488e-15
1.34501e-17
-6.01956e-18
1.3673e-17
-5.48171e-18
5.38371e-19
-6.76911e-19
-2.18078e-19
-1.87122e-19
-1.05469e-19
-6.29566e-20
-3.7322e-20
-2.35548e-20
-1.19497e-20
-2.92281e-21
1.6389e-22
)
;
    }
    frontAndBack
    {
        type            empty;
    }
}


// ************************************************************************* //
