/*--------------------------------*- C++ -*----------------------------------*\
| =========                 |                                                 |
| \\      /  F ield         | OpenFOAM: The Open Source CFD Toolbox           |
|  \\    /   O peration     | Version:  2506                                  |
|   \\  /    A nd           | Website:  www.openfoam.com                      |
|    \\/     M anipulation  |                                                 |
\*---------------------------------------------------------------------------*/
FoamFile
{
    version     2.0;
    format      ascii;
    arch        "LSB;label=32;scalar=64";
    class       volVectorField;
    location    "3.125";
    object      UNear;
}
// * * * * * * * * * * * * * * * * * * * * * * * * * * * * * * * * * * * * * //

dimensions      [0 1 -1 0 0 0 0];

internalField   nonuniform List<vector> 
400
(
(-1 3.02469e-07 0)
(-1 -6.79907e-08 0)
(-1 1.61444e-08 0)
(-1 -3.65874e-09 0)
(-1 8.42298e-10 0)
(-1 -2.02515e-10 0)
(-1 4.20327e-11 0)
(-1 -1.22624e-11 0)
(-1 1.86327e-12 0)
(-1 -3.93471e-13 0)
(-1 8.03991e-13 0)
(-1 8.97768e-13 0)
(-1 1.02176e-12 0)
(-1 9.61623e-13 0)
(-1 8.23735e-13 0)
(-1 6.49954e-13 0)
(-1 4.95315e-13 0)
(-1 3.07519e-13 0)
(-1 6.06416e-14 0)
(-1 -5.67378e-15 0)
(-1 -3.15965e-07 0)
(-1 7.07165e-08 0)
(-1 -1.68113e-08 0)
(-1 3.75787e-09 0)
(-1 -8.98179e-10 0)
(-1 1.89878e-10 0)
(-1 -5.59449e-11 0)
(-1 6.00904e-12 0)
(-1 -4.16138e-12 0)
(-1 1.3123e-12 0)
(-1 2.0384e-12 0)
(-1 2.97032e-12 0)
(-1 3.15283e-12 0)
(-1 2.98576e-12 0)
(-1 2.53817e-12 0)
(-1 1.97176e-12 0)
(-1 1.47588e-12 0)
(-1 9.9703e-13 0)
(-1 1.5212e-13 0)
(-1 -1.25274e-14 0)
(-1 3.44643e-07 0)
(-1 -7.61541e-08 0)
(-1 1.7971e-08 0)
(-1 -4.04185e-09 0)
(-1 8.8083e-10 0)
(-1 -2.35262e-10 0)
(-1 3.14282e-11 0)
(-1 -1.81582e-11 0)
(-1 4.84466e-13 0)
(-1 1.27284e-12 0)
(-1 4.21688e-12 0)
(-1 5.19631e-12 0)
(-1 5.50287e-12 0)
(-1 5.12157e-12 0)
(-1 4.33256e-12 0)
(-1 3.35962e-12 0)
(-1 2.50103e-12 0)
(-1 1.65991e-12 0)
(-1 2.75045e-13 0)
(-1 -1.47227e-14 0)
(-1 -3.90545e-07 0)
(-1 8.5228e-08 0)
(-1 -2.02726e-08 0)
(-1 4.33768e-09 0)
(-1 -1.05609e-09 0)
(-1 1.94585e-10 0)
(-1 -6.74729e-11 0)
(-1 3.08091e-12 0)
(-1 -3.37054e-12 0)
(-1 4.3074e-12 0)
(-1 6.50504e-12 0)
(-1 7.93531e-12 0)
(-1 8.08709e-12 0)
(-1 7.42956e-12 0)
(-1 6.22964e-12 0)
(-1 4.80326e-12 0)
(-1 3.55023e-12 0)
(-1 2.3694e-12 0)
(-1 4.14355e-13 0)
(-1 -1.17903e-14 0)
(-1 4.64738e-07 0)
(-1 -1.02132e-07 0)
(-1 2.39923e-08 0)
(-1 -5.40418e-09 0)
(-1 1.15407e-09 0)
(-1 -3.12974e-10 0)
(-1 4.23249e-11 0)
(-1 -2.04483e-11 0)
(-1 4.8995e-12 0)
(-1 6.2609e-12 0)
(-1 1.00891e-11 0)
(-1 1.10714e-11 0)
(-1 1.10092e-11 0)
(-1 9.92052e-12 0)
(-1 8.23878e-12 0)
(-1 6.32134e-12 0)
(-1 4.65298e-12 0)
(-1 3.07453e-12 0)
(-1 5.8565e-13 0)
(-1 -2.31752e-15 0)
(-1 -5.57423e-07 0)
(-1 1.20252e-07 0)
(-1 -2.84927e-08 0)
(-1 6.00583e-09 0)
(-1 -1.42243e-09 0)
(-1 2.73204e-10 0)
(-1 -7.50512e-11 0)
(-1 1.23829e-11 0)
(-1 3.8009e-12 0)
(-1 1.19728e-11 0)
(-1 1.39643e-11 0)
(-1 1.48258e-11 0)
(-1 1.42062e-11 0)
(-1 1.25841e-11 0)
(-1 1.03386e-11 0)
(-1 7.87948e-12 0)
(-1 5.75888e-12 0)
(-1 3.79997e-12 0)
(-1 7.77541e-13 0)
(-1 1.40805e-14 0)
(-1 6.91121e-07 0)
(-1 -1.51278e-07 0)
(-1 3.55056e-08 0)
(-1 -7.86162e-09 0)
(-1 1.71151e-09 0)
(-1 -4.1742e-10 0)
(-1 7.91114e-11 0)
(-1 -1.27602e-11 0)
(-1 1.70933e-11 0)
(-1 1.63124e-11 0)
(-1 1.91046e-11 0)
(-1 1.88972e-11 0)
(-1 1.76331e-11 0)
(-1 1.53386e-11 0)
(-1 1.24695e-11 0)
(-1 9.44855e-12 0)
(-1 6.86851e-12 0)
(-1 4.49751e-12 0)
(-1 9.90351e-13 0)
(-1 3.71374e-14 0)
(-1 -8.54764e-07 0)
(-1 1.87723e-07 0)
(-1 -4.42749e-08 0)
(-1 9.64765e-09 0)
(-1 -2.20738e-09 0)
(-1 4.91472e-10 0)
(-1 -9.41404e-11 0)
(-1 4.04627e-11 0)
(-1 1.64683e-11 0)
(-1 2.47662e-11 0)
(-1 2.4075e-11 0)
(-1 2.33051e-11 0)
(-1 2.10985e-11 0)
(-1 1.80739e-11 0)
(-1 1.45471e-11 0)
(-1 1.0956e-11 0)
(-1 7.91378e-12 0)
(-1 5.16165e-12 0)
(-1 1.21161e-12 0)
(-1 6.48953e-14 0)
(-0.999999 1.05544e-06 0)
(-1 -2.33895e-07 0)
(-1 5.50185e-08 0)
(-1 -1.21677e-08 0)
(-1 2.75512e-09 0)
(-1 -6.01886e-10 0)
(-1 1.54934e-10 0)
(-1 -1.06625e-12 0)
(-1 3.65133e-11 0)
(-1 2.95131e-11 0)
(-1 2.99784e-11 0)
(-1 2.74808e-11 0)
(-1 2.44305e-11 0)
(-1 2.06221e-11 0)
(-1 1.64542e-11 0)
(-1 1.23285e-11 0)
(-1 8.86094e-12 0)
(-1 5.74778e-12 0)
(-1 1.4289e-12 0)
(-1 9.51685e-14 0)
(-1 -1.28595e-06 0)
(-1 2.87748e-07 0)
(-1 -6.80057e-08 0)
(-1 1.51222e-08 0)
(-1 -3.40923e-09 0)
(-1 8.26898e-10 0)
(-1 -1.24272e-10 0)
(-1 8.00387e-11 0)
(-1 3.15424e-11 0)
(-1 3.91165e-11 0)
(-1 3.43939e-11 0)
(-1 3.14078e-11 0)
(-1 2.73226e-11 0)
(-1 2.28154e-11 0)
(-1 1.80685e-11 0)
(-1 1.3476e-11 0)
(-1 9.63978e-12 0)
(-1 6.22874e-12 0)
(-1 1.63242e-12 0)
(-1 1.23272e-13 0)
(-0.999999 1.52085e-06 0)
(-1 -3.47405e-07 0)
(-1 8.2529e-08 0)
(-1 -1.8357e-08 0)
(-1 4.42488e-09 0)
(-1 -8.95856e-10 0)
(-1 2.77626e-10 0)
(-1 2.77757e-12 0)
(-1 5.75066e-11 0)
(-1 4.05293e-11 0)
(-1 3.92776e-11 0)
(-1 3.42793e-11 0)
(-1 2.96089e-11 0)
(-1 2.44697e-11 0)
(-1 1.92659e-11 0)
(-1 1.43144e-11 0)
(-1 1.02031e-11 0)
(-1 6.57642e-12 0)
(-1 1.80104e-12 0)
(-1 1.46121e-13 0)
(-1 -1.67221e-06 0)
(-1 3.95969e-07 0)
(-1 -9.30743e-08 0)
(-1 2.20158e-08 0)
(-1 -4.99706e-09 0)
(-1 1.26133e-09 0)
(-1 -2.03742e-10 0)
(-1 1.1922e-10 0)
(-1 3.78189e-11 0)
(-1 4.94433e-11 0)
(-1 4.08483e-11 0)
(-1 3.64879e-11 0)
(-1 3.09749e-11 0)
(-1 2.54622e-11 0)
(-1 1.99414e-11 0)
(-1 1.47721e-11 0)
(-1 1.0499e-11 0)
(-1 6.75102e-12 0)
(-1 1.9341e-12 0)
(-1 1.59774e-13 0)
(-0.999999 1.77628e-06 0)
(-1 -4.26856e-07 0)
(-1 1.0083e-07 0)
(-1 -2.40279e-08 0)
(-1 5.77543e-09 0)
(-1 -1.27772e-09 0)
(-1 3.83255e-10 0)
(-1 -1.61212e-11 0)
(-1 7.08602e-11 0)
(-1 4.40241e-11 0)
(-1 4.36624e-11 0)
(-1 3.69336e-11 0)
(-1 3.14906e-11 0)
(-1 2.5656e-11 0)
(-1 2.00198e-11 0)
(-1 1.47834e-11 0)
(-1 1.04842e-11 0)
(-1 6.74933e-12 0)
(-1 2.001e-12 0)
(-1 1.64584e-13 0)
(-1 -1.85888e-06 0)
(-1 4.49967e-07 0)
(-1 -1.06366e-07 0)
(-1 2.57081e-08 0)
(-1 -6.06048e-09 0)
(-1 1.5183e-09 0)
(-1 -2.90071e-10 0)
(-1 1.40912e-10 0)
(-1 3.371e-11 0)
(-1 5.29149e-11 0)
(-1 4.14846e-11 0)
(-1 3.6982e-11 0)
(-1 3.08005e-11 0)
(-1 2.50509e-11 0)
(-1 1.9439e-11 0)
(-1 1.43232e-11 0)
(-1 1.01408e-11 0)
(-1 6.51851e-12 0)
(-1 2.0084e-12 0)
(-1 1.60093e-13 0)
(-0.999999 1.92279e-06 0)
(-1 -4.68062e-07 0)
(-1 1.10731e-07 0)
(-1 -2.69623e-08 0)
(-1 6.50762e-09 0)
(-1 -1.4979e-09 0)
(-1 4.42631e-10 0)
(-1 -3.24045e-11 0)
(-1 7.56718e-11 0)
(-1 4.18492e-11 0)
(-1 4.24859e-11 0)
(-1 3.47615e-11 0)
(-1 2.92872e-11 0)
(-1 2.35114e-11 0)
(-1 1.81863e-11 0)
(-1 1.33457e-11 0)
(-1 9.43024e-12 0)
(-1 6.08234e-12 0)
(-1 1.91896e-12 0)
(-1 1.49732e-13 0)
(-1 -1.96853e-06 0)
(-1 4.76904e-07 0)
(-1 -1.12784e-07 0)
(-1 2.73548e-08 0)
(-1 -6.44245e-09 0)
(-1 1.62963e-09 0)
(-1 -3.08638e-10 0)
(-1 1.49265e-10 0)
(-1 3.12438e-11 0)
(-1 5.02856e-11 0)
(-1 3.72139e-11 0)
(-1 3.24503e-11 0)
(-1 2.63731e-11 0)
(-1 2.11235e-11 0)
(-1 1.62084e-11 0)
(-1 1.18604e-11 0)
(-1 8.3666e-12 0)
(-1 5.38113e-12 0)
(-1 1.74403e-12 0)
(-1 1.31611e-13 0)
(-0.999999 2.00869e-06 0)
(-1 -4.93074e-07 0)
(-1 1.17083e-07 0)
(-1 -2.86608e-08 0)
(-1 7.05653e-09 0)
(-1 -1.60399e-09 0)
(-1 4.96725e-10 0)
(-1 -3.95095e-11 0)
(-1 7.6052e-11 0)
(-1 3.49057e-11 0)
(-1 3.53824e-11 0)
(-1 2.72714e-11 0)
(-1 2.2498e-11 0)
(-1 1.76827e-11 0)
(-1 1.35213e-11 0)
(-1 9.84863e-12 0)
(-1 6.94444e-12 0)
(-1 4.49433e-12 0)
(-1 1.47492e-12 0)
(-1 9.80756e-14 0)
(-1 -2.03819e-06 0)
(-1 5.00066e-07 0)
(-1 -1.18139e-07 0)
(-1 2.95111e-08 0)
(-1 -6.84442e-09 0)
(-1 1.86709e-09 0)
(-1 -3.41389e-10 0)
(-1 1.67215e-10 0)
(-1 1.82072e-11 0)
(-1 4.11202e-11 0)
(-1 2.53905e-11 0)
(-1 2.21182e-11 0)
(-1 1.71564e-11 0)
(-1 1.35593e-11 0)
(-1 1.02595e-11 0)
(-1 7.4775e-12 0)
(-1 5.27614e-12 0)
(-1 3.40939e-12 0)
(-1 1.15179e-12 0)
(-1 4.51494e-14 0)
(-1 2.04475e-06 0)
(-1 -4.88912e-07 0)
(-1 1.16244e-07 0)
(-1 -2.70446e-08 0)
(-1 6.74133e-09 0)
(-1 -1.37493e-09 0)
(-1 4.33866e-10 0)
(-1 -3.3288e-11 0)
(-1 5.03431e-11 0)
(-1 1.91945e-11 0)
(-1 1.85744e-11 0)
(-1 1.36955e-11 0)
(-1 1.09278e-11 0)
(-1 8.45304e-12 0)
(-1 6.38086e-12 0)
(-1 4.62133e-12 0)
(-1 3.27423e-12 0)
(-1 2.2082e-12 0)
(-1 8.13998e-13 0)
(-1 -4.84984e-15 0)
(-1 -2.07222e-06 0)
(-1 5.20648e-07 0)
(-1 -1.23507e-07 0)
(-1 3.13651e-08 0)
(-1 -7.58775e-09 0)
(-1 1.96021e-09 0)
(-1 -4.62745e-10 0)
(-1 1.40503e-10 0)
(-1 -2.05111e-11 0)
(-1 1.65109e-11 0)
(-1 3.87673e-12 0)
(-1 5.26066e-12 0)
(-1 3.46964e-12 0)
(-1 2.83616e-12 0)
(-1 2.08066e-12 0)
(-1 1.51182e-12 0)
(-1 1.09054e-12 0)
(-1 7.80788e-13 0)
(-1 3.23911e-13 0)
(-1 -1.11976e-14 0)
)
;

boundaryField
{
    movingWall
    {
        type            fixedValue;
        value           uniform (-1 -0 -0);
    }
    fixedWalls
    {
        type            calculated;
        value           nonuniform List<vector> 
60
(
(-1 1.20987e-07 0)
(-1 -1.26386e-07 0)
(-1 1.37857e-07 0)
(-1 -1.56218e-07 0)
(-1 1.85895e-07 0)
(-1 -2.22969e-07 0)
(-1 2.76448e-07 0)
(-1 -3.41906e-07 0)
(-1 4.22174e-07 0)
(-1 -5.1438e-07 0)
(-1 6.08342e-07 0)
(-1 -6.68883e-07 0)
(-1 7.10514e-07 0)
(-1 -7.43552e-07 0)
(-1 7.69115e-07 0)
(-1 -7.8741e-07 0)
(-1 8.03477e-07 0)
(-1 -8.15275e-07 0)
(-1 8.17898e-07 0)
(-1 -8.28886e-07 0)
(-1 -2.26951e-15 0)
(-1 -5.01096e-15 0)
(-1 -5.88908e-15 0)
(-1 -4.71612e-15 0)
(-1 -9.27006e-16 0)
(-1 5.63222e-15 0)
(-1 1.48549e-14 0)
(-1 2.59581e-14 0)
(-1 3.80674e-14 0)
(-1 4.93089e-14 0)
(-1 5.84483e-14 0)
(-1 6.39097e-14 0)
(-1 6.58336e-14 0)
(-1 6.40374e-14 0)
(-1 5.98928e-14 0)
(-1 5.26443e-14 0)
(-1 3.92302e-14 0)
(-1 1.80598e-14 0)
(-1 -1.93994e-15 0)
(-1 -4.47906e-15 0)
(-1 1.20987e-07 0)
(-1 -2.71963e-08 0)
(-1 6.45776e-09 0)
(-1 -1.4635e-09 0)
(-1 3.36919e-10 0)
(-1 -8.1006e-11 0)
(-1 1.68131e-11 0)
(-1 -4.90497e-12 0)
(-1 7.45309e-13 0)
(-1 -1.57388e-13 0)
(-1 3.21596e-13 0)
(-1 3.59107e-13 0)
(-1 4.08705e-13 0)
(-1 3.84649e-13 0)
(-1 3.29494e-13 0)
(-1 2.59981e-13 0)
(-1 1.98126e-13 0)
(-1 1.23007e-13 0)
(-1 2.42566e-14 0)
(-1 -2.26951e-15 0)
)
;
    }
    frontAndBack
    {
        type            empty;
    }
}


// ************************************************************************* //
