/*--------------------------------*- C++ -*----------------------------------*\
| =========                 |                                                 |
| \\      /  F ield         | OpenFOAM: The Open Source CFD Toolbox           |
|  \\    /   O peration     | Version:  2506                                  |
|   \\  /    A nd           | Website:  www.openfoam.com                      |
|    \\/     M anipulation  |                                                 |
\*---------------------------------------------------------------------------*/
FoamFile
{
    version     2.0;
    format      ascii;
    arch        "LSB;label=32;scalar=64";
    class       volVectorField;
    location    "3.125";
    object      vorticityField;
}
// * * * * * * * * * * * * * * * * * * * * * * * * * * * * * * * * * * * * * //

dimensions      [0 0 -1 0 0 0 0];

internalField   nonuniform List<vector> 
400
(
(0 -0 2.66821e-05)
(0 -0 -2.92167e-05)
(0 -0 6.71722e-06)
(0 -0 -1.57566e-06)
(0 -0 3.67732e-07)
(0 -0 -8.51628e-08)
(0 -0 1.91237e-08)
(0 -0 -6.73168e-09)
(0 -0 -1.26909e-09)
(0 -0 -2.73504e-09)
(0 -0 -2.20359e-09)
(0 -0 -1.95299e-09)
(0 -0 -1.53486e-09)
(0 -0 -1.13986e-09)
(0 -0 -7.75363e-10)
(0 -0 -4.7956e-10)
(0 -0 -2.55204e-10)
(0 -0 -9.22293e-11)
(0 -0 5.54364e-12)
(0 -0 -2.26001e-11)
(0 -0 -2.92856e-05)
(0 -0 3.05792e-05)
(0 -0 -7.05947e-06)
(0 -0 1.63043e-06)
(0 -0 -3.75877e-07)
(0 -0 8.72109e-08)
(0 -0 -1.97421e-08)
(0 -0 4.85459e-09)
(0 -0 -9.03111e-10)
(0 -0 3.39874e-10)
(0 -0 -2.94624e-11)
(0 -0 -1.81733e-11)
(0 -0 -8.21025e-11)
(0 -0 -1.14213e-10)
(0 -0 -1.3314e-10)
(0 -0 -1.25419e-10)
(0 -0 -1.0902e-10)
(0 -0 -1.37824e-10)
(0 -0 -1.03178e-10)
(0 -0 -1.33358e-11)
(0 -0 3.4846e-05)
(0 -0 -3.40266e-05)
(0 -0 7.84802e-06)
(0 -0 -1.80874e-06)
(0 -0 4.17893e-07)
(0 -0 -9.56402e-08)
(0 -0 2.27152e-08)
(0 -0 -4.69582e-09)
(0 -0 1.49788e-09)
(0 -0 -7.21488e-11)
(0 -0 1.458e-10)
(0 -0 -3.72568e-11)
(0 -0 -1.07302e-10)
(0 -0 -1.78424e-10)
(0 -0 -2.13465e-10)
(0 -0 -2.05433e-10)
(0 -0 -1.80704e-10)
(0 -0 -2.29293e-10)
(0 -0 -1.73182e-10)
(0 -0 -2.49481e-11)
(0 -0 -4.07952e-05)
(0 -0 3.88112e-05)
(0 -0 -8.9223e-06)
(0 -0 2.05149e-06)
(0 -0 -4.70378e-07)
(0 -0 1.09088e-07)
(0 -0 -2.41939e-08)
(0 -0 6.30648e-09)
(0 -0 -8.8799e-10)
(0 -0 5.73854e-10)
(0 -0 3.87497e-11)
(0 -0 -2.09871e-11)
(0 -0 -1.62139e-10)
(0 -0 -2.49984e-10)
(0 -0 -3.00795e-10)
(0 -0 -2.89597e-10)
(0 -0 -2.56125e-10)
(0 -0 -3.21692e-10)
(0 -0 -2.43676e-10)
(0 -0 -3.89555e-11)
(0 -0 4.7888e-05)
(0 -0 -4.60373e-05)
(0 -0 1.05853e-05)
(0 -0 -2.42998e-06)
(0 -0 5.59092e-07)
(0 -0 -1.27003e-07)
(0 -0 3.02141e-08)
(0 -0 -6.00115e-09)
(0 -0 2.06995e-09)
(0 -0 -1.97033e-11)
(0 -0 2.08428e-10)
(0 -0 -7.35163e-11)
(0 -0 -2.03965e-10)
(0 -0 -3.25452e-10)
(0 -0 -3.86915e-10)
(0 -0 -3.73813e-10)
(0 -0 -3.31864e-10)
(0 -0 -4.13184e-10)
(0 -0 -3.15111e-10)
(0 -0 -5.67612e-11)
(0 -0 -6.25188e-05)
(0 -0 5.64817e-05)
(0 -0 -1.30028e-05)
(0 -0 2.99212e-06)
(0 -0 -6.86214e-07)
(0 -0 1.59071e-07)
(0 -0 -3.52366e-08)
(0 -0 9.16023e-09)
(0 -0 -1.29109e-09)
(0 -0 8.18123e-10)
(0 -0 3.82111e-11)
(0 -0 -5.63986e-11)
(0 -0 -2.66485e-10)
(0 -0 -3.98092e-10)
(0 -0 -4.7404e-10)
(0 -0 -4.58347e-10)
(0 -0 -4.09143e-10)
(0 -0 -5.02796e-10)
(0 -0 -3.85366e-10)
(0 -0 -7.7319e-11)
(0 -0 7.43485e-05)
(0 -0 -6.93904e-05)
(0 -0 1.602e-05)
(0 -0 -3.69205e-06)
(0 -0 8.52169e-07)
(0 -0 -1.9447e-07)
(0 -0 4.61408e-08)
(0 -0 -9.39476e-09)
(0 -0 3.05477e-09)
(0 -0 -1.27621e-10)
(0 -0 2.64284e-10)
(0 -0 -1.36935e-10)
(0 -0 -3.09078e-10)
(0 -0 -4.74185e-10)
(0 -0 -5.56965e-10)
(0 -0 -5.405e-10)
(0 -0 -4.84588e-10)
(0 -0 -5.87979e-10)
(0 -0 -4.53247e-10)
(0 -0 -1.00689e-10)
(0 -0 -9.02581e-05)
(0 -0 8.55564e-05)
(0 -0 -1.97933e-05)
(0 -0 4.57449e-06)
(0 -0 -1.05376e-06)
(0 -0 2.44623e-07)
(0 -0 -5.47694e-08)
(0 -0 1.38864e-08)
(0 -0 -2.22757e-09)
(0 -0 1.11307e-09)
(0 -0 -2.42756e-11)
(0 -0 -1.06729e-10)
(0 -0 -3.78434e-10)
(0 -0 -5.40968e-10)
(0 -0 -6.36107e-10)
(0 -0 -6.17417e-10)
(0 -0 -5.5648e-10)
(0 -0 -6.65962e-10)
(0 -0 -5.1572e-10)
(0 -0 -1.2532e-10)
(0 -0 0.000110016)
(0 -0 -0.000105651)
(0 -0 2.45861e-05)
(0 -0 -5.71294e-06)
(0 -0 1.32866e-06)
(0 -0 -3.06411e-07)
(0 -0 7.26277e-08)
(0 -0 -1.54644e-08)
(0 -0 4.57027e-09)
(0 -0 -4.44311e-10)
(0 -0 3.16265e-10)
(0 -0 -2.26203e-10)
(0 -0 -4.12252e-10)
(0 -0 -6.09248e-10)
(0 -0 -7.04723e-10)
(0 -0 -6.86196e-10)
(0 -0 -6.20808e-10)
(0 -0 -7.33067e-10)
(0 -0 -5.70058e-10)
(0 -0 -1.49778e-10)
(0 -0 -0.000126913)
(0 -0 0.000127471)
(0 -0 -2.98062e-05)
(0 -0 6.95948e-06)
(0 -0 -1.62063e-06)
(0 -0 3.79263e-07)
(0 -0 -8.65786e-08)
(0 -0 2.14756e-08)
(0 -0 -3.98661e-09)
(0 -0 1.52201e-09)
(0 -0 -1.67432e-10)
(0 -0 -1.58365e-10)
(0 -0 -4.83834e-10)
(0 -0 -6.57503e-10)
(0 -0 -7.62878e-10)
(0 -0 -7.41608e-10)
(0 -0 -6.73443e-10)
(0 -0 -7.85503e-10)
(0 -0 -6.14125e-10)
(0 -0 -1.72696e-10)
(0 -0 0.000136231)
(0 -0 -0.000148228)
(0 -0 3.49568e-05)
(0 -0 -8.22552e-06)
(0 -0 1.93565e-06)
(0 -0 -4.52805e-07)
(0 -0 1.07857e-07)
(0 -0 -2.39351e-08)
(0 -0 6.56713e-09)
(0 -0 -9.68821e-10)
(0 -0 3.72308e-10)
(0 -0 -3.27463e-10)
(0 -0 -4.9207e-10)
(0 -0 -7.04975e-10)
(0 -0 -8.01723e-10)
(0 -0 -7.81217e-10)
(0 -0 -7.10753e-10)
(0 -0 -8.19818e-10)
(0 -0 -6.44684e-10)
(0 -0 -1.91708e-10)
(0 -0 -0.000132862)
(0 -0 0.000159892)
(0 -0 -3.81443e-05)
(0 -0 9.09694e-06)
(0 -0 -2.16544e-06)
(0 -0 5.16855e-07)
(0 -0 -1.21144e-07)
(0 -0 2.99649e-08)
(0 -0 -6.16398e-09)
(0 -0 1.96949e-09)
(0 -0 -3.59116e-10)
(0 -0 -1.9376e-10)
(0 -0 -5.5553e-10)
(0 -0 -7.17504e-10)
(0 -0 -8.22162e-10)
(0 -0 -7.97548e-10)
(0 -0 -7.26625e-10)
(0 -0 -8.31337e-10)
(0 -0 -6.60534e-10)
(0 -0 -2.06623e-10)
(0 -0 0.000128607)
(0 -0 -0.000166891)
(0 -0 3.98574e-05)
(0 -0 -9.51371e-06)
(0 -0 2.27272e-06)
(0 -0 -5.40844e-07)
(0 -0 1.30548e-07)
(0 -0 -3.00001e-08)
(0 -0 8.00401e-09)
(0 -0 -1.4589e-09)
(0 -0 4.07541e-10)
(0 -0 -4.0528e-10)
(0 -0 -5.21122e-10)
(0 -0 -7.2936e-10)
(0 -0 -8.14769e-10)
(0 -0 -7.91797e-10)
(0 -0 -7.20793e-10)
(0 -0 -8.19318e-10)
(0 -0 -6.57742e-10)
(0 -0 -2.14254e-10)
(0 -0 -0.000127171)
(0 -0 0.000172869)
(0 -0 -4.12787e-05)
(0 -0 9.85326e-06)
(0 -0 -2.35025e-06)
(0 -0 5.62581e-07)
(0 -0 -1.33087e-07)
(0 -0 3.28644e-08)
(0 -0 -7.12152e-09)
(0 -0 2.08934e-09)
(0 -0 -4.81328e-10)
(0 -0 -2.06794e-10)
(0 -0 -5.59453e-10)
(0 -0 -6.92822e-10)
(0 -0 -7.8423e-10)
(0 -0 -7.56535e-10)
(0 -0 -6.8837e-10)
(0 -0 -7.79819e-10)
(0 -0 -6.35869e-10)
(0 -0 -2.1525e-10)
(0 -0 0.000126547)
(0 -0 -0.00017758)
(0 -0 4.24062e-05)
(0 -0 -1.01234e-05)
(0 -0 2.41931e-06)
(0 -0 -5.7686e-07)
(0 -0 1.39023e-07)
(0 -0 -3.23403e-08)
(0 -0 8.35939e-09)
(0 -0 -1.68971e-09)
(0 -0 3.85891e-10)
(0 -0 -4.14565e-10)
(0 -0 -4.78985e-10)
(0 -0 -6.56893e-10)
(0 -0 -7.22597e-10)
(0 -0 -6.98447e-10)
(0 -0 -6.34012e-10)
(0 -0 -7.16054e-10)
(0 -0 -5.90225e-10)
(0 -0 -2.05812e-10)
(0 -0 -0.000136367)
(0 -0 0.000183577)
(0 -0 -4.38886e-05)
(0 -0 1.04939e-05)
(0 -0 -2.50928e-06)
(0 -0 6.01687e-07)
(0 -0 -1.43188e-07)
(0 -0 3.50558e-08)
(0 -0 -7.90303e-09)
(0 -0 2.13032e-09)
(0 -0 -5.56945e-10)
(0 -0 -1.71289e-10)
(0 -0 -4.82264e-10)
(0 -0 -5.71678e-10)
(0 -0 -6.4098e-10)
(0 -0 -6.14067e-10)
(0 -0 -5.57528e-10)
(0 -0 -6.28159e-10)
(0 -0 -5.2254e-10)
(0 -0 -1.86019e-10)
(0 -0 0.000116872)
(0 -0 -0.000181575)
(0 -0 4.32661e-05)
(0 -0 -1.03058e-05)
(0 -0 2.45649e-06)
(0 -0 -5.8468e-07)
(0 -0 1.40066e-07)
(0 -0 -3.28291e-08)
(0 -0 8.19474e-09)
(0 -0 -1.79891e-09)
(0 -0 3.59991e-10)
(0 -0 -3.62079e-10)
(0 -0 -3.63881e-10)
(0 -0 -4.93721e-10)
(0 -0 -5.33528e-10)
(0 -0 -5.13024e-10)
(0 -0 -4.65445e-10)
(0 -0 -5.22666e-10)
(0 -0 -4.35803e-10)
(0 -0 -1.54969e-10)
(0 -0 -0.000123722)
(0 -0 0.000185521)
(0 -0 -4.42134e-05)
(0 -0 1.05336e-05)
(0 -0 -2.50947e-06)
(0 -0 5.98725e-07)
(0 -0 -1.4223e-07)
(0 -0 3.43182e-08)
(0 -0 -7.9189e-09)
(0 -0 1.99712e-09)
(0 -0 -5.32373e-10)
(0 -0 -8.13034e-11)
(0 -0 -3.16497e-10)
(0 -0 -3.5546e-10)
(0 -0 -3.96981e-10)
(0 -0 -3.75275e-10)
(0 -0 -3.38886e-10)
(0 -0 -3.8823e-10)
(0 -0 -3.37427e-10)
(0 -0 -1.19314e-10)
(0 -0 0.000159642)
(0 -0 -0.00019548)
(0 -0 4.68865e-05)
(0 -0 -1.12486e-05)
(0 -0 2.70041e-06)
(0 -0 -6.48654e-07)
(0 -0 1.56138e-07)
(0 -0 -3.74241e-08)
(0 -0 9.12555e-09)
(0 -0 -2.16273e-09)
(0 -0 4.80553e-10)
(0 -0 -2.36493e-10)
(0 -0 -1.30736e-10)
(0 -0 -2.07119e-10)
(0 -0 -2.13222e-10)
(0 -0 -1.94843e-10)
(0 -0 -1.66015e-10)
(0 -0 -2.15638e-10)
(0 -0 -2.25235e-10)
(0 -0 -8.5604e-11)
(0 -0 -0.000156129)
(0 -0 0.000196039)
(0 -0 -4.93031e-05)
(0 -0 1.1711e-05)
(0 -0 -3.05356e-06)
(0 -0 6.97059e-07)
(0 -0 -2.15916e-07)
(0 -0 2.8487e-08)
(0 -0 -2.68336e-08)
(0 -0 -7.34224e-09)
(0 -0 -8.76256e-09)
(0 -0 -5.54493e-09)
(0 -0 -4.21602e-09)
(0 -0 -2.85331e-09)
(0 -0 -1.88591e-09)
(0 -0 -1.15107e-09)
(0 -0 -6.39951e-10)
(0 -0 -2.82011e-10)
(0 -0 -6.87089e-11)
(0 -0 -4.07852e-11)
)
;

boundaryField
{
    movingWall
    {
        type            calculated;
        value           nonuniform List<vector> 
20
(
(0 -0 -0.000294093)
(0 -0 0.000229007)
(0 -0 -6.25338e-05)
(0 -0 1.48415e-05)
(0 -0 -4.26485e-06)
(0 -0 9.7356e-07)
(0 -0 -3.45626e-07)
(0 -0 3.78179e-08)
(0 -0 -5.10958e-08)
(0 -0 -1.57524e-08)
(0 -0 -1.7777e-08)
(0 -0 -1.12552e-08)
(0 -0 -8.53502e-09)
(0 -0 -5.7449e-09)
(0 -0 -3.78702e-09)
(0 -0 -2.30942e-09)
(0 -0 -1.28511e-09)
(0 -0 -5.22262e-10)
(0 -0 -5.26865e-11)
(0 -0 -4.29953e-11)
)
;
    }
    fixedWalls
    {
        type            calculated;
        value           nonuniform List<vector> 
60
(
(0 -0 0.000124222)
(0 -0 -0.000131147)
(0 -0 0.000145854)
(0 -0 -0.000166482)
(0 -0 0.000197522)
(0 -0 -0.000241771)
(0 -0 0.000296813)
(0 -0 -0.00036546)
(0 -0 0.000450036)
(0 -0 -0.000541472)
(0 -0 0.000627228)
(0 -0 -0.000674122)
(0 -0 0.000704178)
(0 -0 -0.000729832)
(0 -0 0.00075019)
(0 -0 -0.000774615)
(0 -0 0.000768787)
(0 -0 -0.000785185)
(0 -0 0.000821957)
(0 -0 -0.000829858)
(0 -0 -1.48338e-11)
(0 -0 5.63437e-12)
(0 -0 6.97328e-12)
(0 -0 6.01716e-12)
(0 -0 2.4991e-12)
(0 -0 -3.78907e-12)
(0 -0 -1.2795e-11)
(0 -0 -2.36271e-11)
(0 -0 -3.54382e-11)
(0 -0 -4.64358e-11)
(0 -0 -5.54397e-11)
(0 -0 -6.1145e-11)
(0 -0 -6.35297e-11)
(0 -0 -6.24382e-11)
(0 -0 -5.88357e-11)
(0 -0 -5.10994e-11)
(0 -0 -3.68992e-11)
(0 -0 -1.76803e-11)
(0 -0 -2.74924e-12)
(0 -0 -5.03481e-12)
(0 -0 2.08234e-05)
(0 -0 -2.85111e-05)
(0 -0 6.31698e-06)
(0 -0 -1.5466e-06)
(0 -0 3.55259e-07)
(0 -0 -8.28152e-08)
(0 -0 1.83057e-08)
(0 -0 -8.63037e-09)
(0 -0 -3.49514e-09)
(0 -0 -5.12387e-09)
(0 -0 -4.37927e-09)
(0 -0 -3.81746e-09)
(0 -0 -3.00423e-09)
(0 -0 -2.21578e-09)
(0 -0 -1.4928e-09)
(0 -0 -9.11428e-10)
(0 -0 -4.77711e-10)
(0 -0 -1.39879e-10)
(0 -0 5.00379e-11)
(0 -0 -4.01357e-11)
)
;
    }
    frontAndBack
    {
        type            empty;
    }
}


// ************************************************************************* //
