/*--------------------------------*- C++ -*----------------------------------*\
| =========                 |                                                 |
| \\      /  F ield         | OpenFOAM: The Open Source CFD Toolbox           |
|  \\    /   O peration     | Version:  2506                                  |
|   \\  /    A nd           | Website:  www.openfoam.com                      |
|    \\/     M anipulation  |                                                 |
\*---------------------------------------------------------------------------*/
FoamFile
{
    version     2.0;
    format      ascii;
    arch        "LSB;label=32;scalar=64";
    class       volScalarField;
    location    "3.125";
    object      zeroGradient(epsilon);
}
// * * * * * * * * * * * * * * * * * * * * * * * * * * * * * * * * * * * * * //

dimensions      [0 2 -3 0 0 0 0];

internalField   nonuniform List<scalar> 
400
(
6.63557e-05
6.63513e-05
6.63486e-05
6.63454e-05
6.6343e-05
6.63402e-05
6.63386e-05
6.63367e-05
6.6335e-05
6.63335e-05
6.63322e-05
6.63311e-05
6.63302e-05
6.63294e-05
6.63288e-05
6.63283e-05
6.63279e-05
6.63277e-05
6.63276e-05
6.63276e-05
0.00013137
0.000124713
0.000125166
0.000125361
0.000125751
0.000125962
0.000126356
0.000126584
0.000126982
0.000127227
0.00012763
0.000127892
0.000128301
0.000128578
0.000128994
0.000129285
0.000129711
0.000130014
0.000130233
0.000130606
0.000251714
0.000234872
0.000235968
0.000236442
0.000237393
0.000237913
0.000238875
0.000239442
0.000240416
0.000241029
0.000242017
0.000242674
0.00024368
0.000244378
0.000245407
0.000246142
0.000247197
0.000247968
0.000248512
0.000249447
0.000368327
0.000339383
0.000341177
0.000341961
0.000343535
0.000344403
0.000346001
0.000346955
0.000348579
0.000349619
0.000351273
0.000352396
0.000354085
0.000355286
0.000357019
0.000358293
0.000360078
0.000361422
0.000362345
0.000363953
0.000450162
0.000411802
0.000414105
0.000415119
0.000417155
0.000418283
0.000420355
0.000421603
0.000423713
0.000425079
0.000427233
0.000428715
0.000430921
0.000432512
0.00043478
0.000436475
0.000438816
0.000440609
0.000441823
0.000443952
0.000499157
0.000454875
0.000457479
0.000458637
0.000460953
0.000462241
0.000464602
0.000466031
0.000468439
0.000470009
0.00047247
0.000474176
0.0004767
0.000478536
0.000481135
0.000483094
0.00048578
0.000487857
0.000489252
0.000491708
0.000527877
0.000480055
0.00048284
0.000484079
0.00048656
0.000487942
0.000490473
0.00049201
0.000494593
0.000496283
0.000498925
0.000500766
0.000503477
0.00050546
0.000508254
0.000510373
0.000513262
0.000515512
0.000517013
0.000519664
0.000546058
0.000495972
0.000498863
0.000500159
0.000502743
0.000504185
0.000506824
0.000508429
0.000511123
0.00051289
0.000515647
0.000517572
0.000520403
0.000522479
0.000525398
0.000527617
0.000530637
0.000532995
0.000534565
0.000537341
0.000559366
0.000507623
0.000510597
0.000511929
0.00051459
0.000516076
0.000518793
0.000520448
0.000523223
0.000525047
0.000527888
0.000529875
0.000532793
0.000534938
0.000537948
0.000540241
0.000543357
0.000545795
0.000547415
0.000550282
0.000570759
0.000517591
0.000520645
0.000522002
0.00052473
0.000526252
0.000529037
0.000530735
0.00053358
0.000535451
0.000538364
0.000540405
0.000543398
0.000545601
0.00054869
0.000551047
0.000554244
0.000556751
0.000558413
0.000561359
0.00058184
0.00052728
0.000530395
0.000531788
0.000534578
0.000536137
0.000538988
0.000540727
0.000543639
0.000545558
0.000548541
0.000550634
0.0005537
0.00055596
0.000559124
0.000561544
0.00056482
0.000567394
0.000569099
0.00057212
0.000593536
0.000537498
0.000540703
0.000542115
0.000544975
0.000546572
0.000549492
0.000551275
0.000554259
0.000556227
0.000559284
0.000561433
0.000564576
0.000566897
0.000570142
0.000572627
0.000575988
0.000578633
0.000580382
0.000583484
0.000606511
0.000548837
0.000552102
0.000553567
0.000556498
0.000558138
0.000561135
0.000562966
0.000566031
0.000568054
0.000571194
0.000573404
0.000576633
0.000579022
0.000582356
0.000584916
0.00058837
0.000591095
0.000592893
0.000596086
0.000621335
0.000561766
0.000565123
0.00056663
0.000569647
0.000571336
0.000574421
0.000576309
0.000579464
0.000581552
0.000584786
0.000587067
0.000590395
0.000592861
0.000596299
0.000598943
0.000602505
0.000605322
0.000607177
0.000610474
0.000638624
0.00057682
0.000580305
0.000581845
0.000584965
0.000586711
0.000589899
0.000591854
0.000595115
0.000597278
0.000600623
0.000602987
0.000606431
0.000608989
0.000612547
0.000615291
0.00061898
0.000621905
0.000623826
0.000627245
0.000659211
0.000594731
0.00059835
0.000599943
0.000603184
0.000604999
0.00060831
0.000610344
0.000613734
0.000615986
0.000619464
0.000621929
0.000625511
0.000628179
0.000631882
0.000634746
0.000638587
0.000641641
0.000643643
0.000647209
0.000684316
0.000616537
0.000620313
0.000621976
0.000625363
0.000627261
0.000630724
0.000632855
0.000636402
0.000638764
0.000642406
0.000644993
0.000648745
0.000651549
0.00065543
0.000658441
0.000662469
0.000665684
0.000667783
0.00067153
0.000714659
0.000642918
0.00064688
0.000648623
0.000652182
0.000654181
0.000657822
0.00066007
0.000663804
0.000666299
0.000670136
0.000672873
0.000676829
0.000679798
0.000683894
0.000687087
0.000691339
0.000694751
0.000696969
0.000700937
0.000745959
0.000672465
0.000676332
0.000678096
0.000681636
0.000683655
0.0006873
0.0006896
0.000693355
0.000695937
0.000699818
0.000702676
0.000706704
0.00070983
0.000714031
0.000717417
0.000721814
0.000725456
0.000727769
0.000731956
0.000753967
0.000753872
0.000753841
0.000753777
0.000753751
0.000753712
0.000753692
0.000753661
0.000753647
0.00075363
0.000753617
0.000753608
0.000753597
0.000753592
0.000753587
0.000753585
0.000753583
0.000753583
0.000753582
0.000753582
)
;

boundaryField
{
    movingWall
    {
        type            zeroGradient;
    }
    fixedWalls
    {
        type            zeroGradient;
    }
    frontAndBack
    {
        type            empty;
    }
}


// ************************************************************************* //
